,material_id,formula_pretty,density,energy_per_atom,efermi,energy_above_hull,band_gap,e_total,formula,data.Sᵉ.p.v.value,data.Sᵉ.p.T.value,data.σᵉ.p.v.value,data.σᵉ.p.T.value,data.κₑᵉ.p.v.value,data.κₑᵉ.p.T.value,ZT
335,mp-505321,CsNb(CuTe2)2,5.392786009813936,-4.675581765625,3.46130362,0.0,0.9992999999999994,10.152531739999999,CsNb(CuTe2)2,992.284,500.0,2923.76,100.0,0.766402,100.0,0.8764635376740243
336,mp-16855,K3Ta3Si2O13,5.299668847168907,-8.591515563809525,1.33935573,0.0,2.9088999999999996,19.837949783422747,K3Ta3Si2O13,1223.97,1100.0,504.462,200.0,0.0691969,100.0,5.096712616256076
337,mp-7812,GeO2,3.68308773176659,-6.916133872499999,-1.33778176,0.0005889497222213436,3.2779,5.705280343333333,GeO2,1283.8,1200.0,815.27,100.0,0.156806,100.0,3.9988978352918463
338,mp-3098,AlCuO2,4.9640654375219855,-6.85234818,6.09085843,8.237249999965002e-05,1.8148,9.602708096663827,AlCuO2,1287.57,600.0,1052.95,1300.0,0.0904059,100.0,12.872455948372503
339,mp-27854,TaCl4F,3.054881492197406,-5.747412955833333,-2.20077976,0.0,3.0944000000000003,4.435415523333334,TaCl4F,1252.31,1000.0,205.596,100.0,0.0278378,300.0,5.4051808401183745
340,mp-755792,LuGaO3,8.887079570664806,-7.6441232365000005,2.58184086,0.05454235283333286,3.6376,22.31484528,LuGaO3,1321.13,1300.0,1683.55,100.0,0.305144,100.0,4.814844853716598
341,mp-10644,TaTl3Se4,7.031515967945506,-4.9517887062499994,1.9849676,0.0,2.2527,21.416513483365993,TaTl3Se4,1199.66,800.0,2648.32,100.0,0.581037,100.0,2.1865618867793226
342,mp-8756,KLiSe,2.7659623182266633,-3.5423892616666666,0.41473306,0.0,3.2590999999999997,8.849830876666667,KLiSe,1220.58,1000.0,2056.73,200.0,0.321925,100.0,4.124555720156313
343,mp-571333,Ca5(SiN3)2,3.003935591489585,-6.767149556538461,4.32042853,0.0,2.1605,25.13932252666666,Ca5(SiN3)2,1105.78,900.0,2397.36,100.0,0.417044,100.0,2.577272081518182
344,mp-27655,Te2I,5.055947467434204,-2.7884342825000004,3.24169004,0.0,0.6729000000000003,34.516588473333336,Te2I,954.549,300.0,3516.23,100.0,0.699727,100.0,0.7631217758903109
345,mp-781712,Na2SnO2,3.795321424363645,-4.999580193,2.71812012,0.04015875375000011,2.4072,12.961714243333333,Na2SnO2,1188.55,900.0,1061.3,100.0,0.234015,100.0,2.3490962496586043
346,mp-30908,Ag3PSe4,5.3810342076971605,-3.8277349631249997,2.04292933,0.0,0.1743999999999999,12.455571403333332,Ag3PSe4,737.57,100.0,3915.37,1300.0,0.744353,100.0,1.430771754261965
347,mp-774702,Li3BiO4,5.69338631811287,-5.56079311125,1.94786767,0.0,1.3994999999999997,18.598129823333334,Li3BiO4,1217.68,600.0,1274.28,100.0,0.277864,100.0,1.8132916500740628
348,mp-8720,Rb2MnTe2,3.8902522542243836,-4.407315186,1.95107362,0.0,0.0,8.776203783343972,Rb2MnTe2,1028.99,400.0,1422.42,100.0,0.310579,100.0,0.9698578087756365
349,mp-40251,BaLaMgTaO6,7.150100419254625,-8.43879136,4.17296785,0.07956069616666994,2.9425,10.187036386666659,BaLaMgTaO6,1279.3,1100.0,1337.04,100.0,0.269626,100.0,3.5168150451742783
350,mp-556588,SiO2,2.974995908725371,-8.071059518333334,2.9765639,0.30319835166666564,4.0078000000000005,6.32101793,SiO2,1236.13,1300.0,535.575,100.0,0.0455991,800.0,13.161147146859468
351,mp-1167,CF4,1.9848881666589266,-5.5577907060000005,-5.38132639,0.0,9.3354,1.9279020433228091,CF4,1372.87,1300.0,136.664,100.0,0.00597846,1300.0,38.776279691728526
352,mp-27355,Pb2OF2,7.652770185633043,-5.447011054,2.34056589,0.0,2.8510999999999997,21.801495373333335,Pb2OF2,1269.72,1000.0,583.322,100.0,0.134539,100.0,2.795992956469261
353,mp-722937,Zr3Zn3N,7.082827767923488,-6.192996900714285,4.31751284,0.0,0.0,1953.862158956658,Zr3Zn3N,25.4844,300.0,53208.5,1300.0,126030.0,100.0,1.5537586967408537e-07
354,mp-753821,Pr3GaO6,6.273014379011475,-8.1254372245,1.98781052,0.0,3.6286,16.270122246666666,Pr3GaO6,1267.13,1300.0,1378.94,100.0,0.254783,100.0,4.344974914689924
355,mp-10919,Rb2PtC2,4.759706023078119,-5.359975326,1.2735678,0.0,1.1361999999999999,11.98203588665414,Rb2PtC2,1118.9,400.0,5923.87,100.0,1.20169,100.0,1.2343138879748858
356,mp-758604,LiAgF2,4.47022088240165,-4.287557665,-1.22605194,0.05354451500000046,1.3843999999999999,10.94470279,LiAgF2,1245.53,500.0,354.56,100.0,0.0556274,100.0,2.3072048037449937
357,mp-7441,KP,2.0159205436613616,-3.674296835,2.39110254,0.0,1.0349999999999997,11.235214570000002,KP,1003.15,500.0,2682.9,100.0,0.482914,100.0,1.3044974355355716
358,mp-558807,ZnAgPS4,3.6622396149991565,-4.368739835357143,2.62567311,0.0,2.1933999999999996,9.294920036666666,ZnAgPS4,1138.71,900.0,2368.19,100.0,0.468331,100.0,2.404148760118148
359,mp-10070,BaAg(PO3)3,3.7389449861685162,-7.306532901607143,1.36117948,0.0,3.3851000000000004,7.775922829999999,BaAg(PO3)3,1187.82,1000.0,170.082,100.0,0.00270088,700.0,53.30961946822444
360,mp-557343,Zn3BPO7,4.228213565429041,-6.5232551,1.07504811,0.02239239791666847,3.1967999999999996,10.595964373333336,Zn3BPO7,1224.29,1200.0,1387.66,100.0,0.282256,1000.0,5.64956582042972
361,mp-753671,PNO,2.630746269744851,-7.713684484999999,2.56904244,0.0,5.1181,6.318184126666668,PNO,1198.04,1300.0,1234.9,100.0,0.23286,100.0,3.805831345855535
362,mp-9693,K2SnSe3,3.3728136779646554,-3.9125349899999997,0.56063359,0.0,1.646,9.295140923333335,K2SnSe3,1176.72,600.0,1907.76,100.0,0.342286,100.0,2.0580200649649196
363,mp-23651,Na4Al3Ge3IO12,2.945362390009368,-6.535310728913044,-0.04525054,0.0,3.5222,5.731621233333333,Na4Al3Ge3IO12,1236.94,400.0,55.0095,100.0,0.000495557,800.0,73.59756533312377
364,mp-675801,KNbCl6,2.0465141144039203,-4.6829819475,-1.9755818,0.0,2.0965000000000003,10.143283020965256,KNbCl6,1213.12,800.0,798.348,100.0,0.224216,100.0,1.746674226308516
365,mp-38011,KHS,1.686647532537042,-3.8177143233333335,-0.5194133,0.003821666666666168,3.2247999999999997,6.361778599952597,KHS,1240.73,1200.0,1473.38,100.0,0.288311,100.0,3.6712579962178373
366,mp-8188,KScO2,3.4236757060093517,-7.433024424999999,1.82205967,0.0,3.6240999999999994,18.90612635314209,KScO2,1301.97,1300.0,1953.08,100.0,0.310764,100.0,5.326737420467254
367,mp-7921,MgPdF6,3.940071452622389,-4.713989455,-1.51059418,0.0,1.8285,5.555414606665494,MgPdF6,1244.45,700.0,719.1,100.0,0.135136,100.0,2.472261397949658
368,mp-30943,MgPSe3,3.5927663653982957,-4.388379354,1.85054648,0.0,2.0382,8.170245143333338,MgPSe3,1182.03,800.0,3158.66,100.0,0.47713,100.0,3.08320143975436
369,mp-22876,CsI3,3.9853866197594736,-2.483523324375,0.51099331,0.0,1.9163999999999999,8.25663692,CsI3,1167.4,700.0,796.577,200.0,0.170034,100.0,2.128188608734175
370,mp-760483,Li2PdO3,4.924029400852007,-5.605017165,1.97650238,0.0,1.0970000000000004,19.136684659999997,Li2PdO3,1203.78,500.0,1041.99,100.0,0.240877,100.0,1.4626460740750689
371,mp-754117,YHO2,4.294973483683763,-7.896544243749999,1.0424829,0.018924173750000328,4.8376,13.378949066666666,YHO2,1325.66,1300.0,840.429,100.0,0.142451,100.0,5.184057814746377
372,mp-23909,H6CN3ClO,1.507857640810991,-5.766134993541667,-0.96286291,0.09536457793981157,5.2019,10.217659633333332,H6CN3ClO,1277.96,1300.0,384.234,100.0,0.0509581,100.0,6.157254302913712
373,mp-344,BN,2.5427156028829394,-8.7498891375,3.65924926,0.21943424,3.5767,6.840931893333237,BN,1236.73,1300.0,2035.53,100.0,0.387908,100.0,4.012994523998907
374,mp-540635,BaSn(GeO3)3,4.623335565565327,-6.946768812500001,1.37985654,0.0,2.7866000000000004,9.6277450299686,BaSn(GeO3)3,1201.79,1000.0,606.851,100.0,0.0954474,100.0,3.673120132375692
375,mp-557592,CrAg(PS3)2,3.025844644643172,-5.461568456,3.13898554,0.0,0.0,12.304914940000002,CrAg(PS3)2,1098.42,400.0,1143.55,100.0,0.25572,100.0,1.0790891404334586
376,mp-768176,TmTaO4,8.580557530126844,-9.686778493333334,1.62954808,0.08539365166666713,3.5355,20.32238794,TmTaO4,1288.73,1300.0,1004.09,100.0,0.150519,100.0,5.539559082915648
377,mp-567809,AgI,5.5480196019640635,-2.62401454,1.53284226,0.024783105000000027,1.5986,8.371926873333331,AgI,1108.82,700.0,2941.42,100.0,0.523653,100.0,2.0718428045678383
378,mp-7392,Na2AgSb,4.2428254394616225,-2.81187614125,2.4007414,0.0,0.6549999999999998,19.093093913319063,Na2AgSb,837.636,300.0,4408.88,200.0,0.999738,100.0,0.6188462200917928
379,mp-6499,BaLiBO3,4.266235240517525,-7.184054627916667,1.34066471,0.0,4.1341,12.065783246666667,BaLiBO3,1218.74,1300.0,928.575,100.0,0.158361,100.0,4.354726521131056
380,mp-504600,NaH4ClO2,1.5904794312659634,-4.7914944225,-2.06372283,0.02686613312499997,4.923,5.510915926666667,NaH4ClO2,1322.13,1300.0,237.594,100.0,0.0294181,200.0,7.529530497591957
381,mp-9396,HfTlCuS3,6.906792155990901,-6.050089939166667,4.8324446,0.0,0.5853000000000002,45.21681771666667,HfTlCuS3,914.57,300.0,4176.3,100.0,0.711924,100.0,0.8177879495629379
382,mp-13800,Cs2NaTlF6,5.2106185677039765,-4.419356616,-1.55115848,0.0,3.6228,8.49981298,Cs2NaTlF6,1359.67,1200.0,147.94,900.0,0.0300023,100.0,6.684970909637653
383,mp-17400,Ba2TaN3,6.5950025963379035,-8.0387060075,2.38042326,0.0,2.0155000000000003,18.64243744,Ba2TaN3,1182.17,800.0,1550.0,100.0,0.401122,100.0,1.8000883844108941
384,mp-9919,LiZnSb,5.159037617758053,-2.8622002133333333,4.40957193,0.0,0.4330999999999996,31.898639150004055,LiZnSb,781.512,200.0,6258.9,1300.0,0.944941,100.0,2.1575623233505197
385,mp-669367,KAl(SO4)2,2.5090272066300234,-6.7075557325,0.44049534,0.011849890000005026,5.5112000000000005,7.404589466666408,KAl(SO4)2,1259.95,1300.0,726.207,100.0,0.184307,100.0,3.1274849379934486
386,mp-669367,KAl(SO4)2,2.5090272066300234,-6.7075557325,0.44049534,0.011849890000005026,5.5112000000000005,7.404589466666408,KAl(SO4)2,1259.95,1300.0,726.207,100.0,0.184307,100.0,3.1274849379934486
387,mp-9583,K2ZnF4,3.205569607646508,-4.45490975,-1.49844356,0.0,4.0673,9.056451026511732,K2ZnF4,1271.28,1300.0,2170.98,100.0,0.333611,100.0,5.258572842486656
388,mp-765230,LiVOF3,2.8791593075700224,-6.591578351666667,-0.9028468,0.004353390416663494,1.1322,9.746273056666668,LiVOF3,1213.22,500.0,271.812,100.0,0.0263513,500.0,5.566947599204781
389,mp-765046,Li4V2OF7,2.9365119522942793,-6.163909128928571,2.0960901,0.0547920324107114,0.9141999999999999,6.949470306666668,Li4V2OF7,1143.97,300.0,140.516,100.0,0.006834,300.0,6.278513902007467
390,mp-8754,NaLiTe,3.508012486449573,-3.260567211666667,2.24830202,0.0,2.2840000000000003,11.231166746666668,NaLiTe,1165.14,1000.0,2909.43,100.0,0.636283,100.0,2.4829833547907634
391,mp-4004,Ag5SbS4,5.893921663282094,-3.78170182,3.3182075,0.013321662000004952,0.5945,17.720275806666663,Ag5SbS4,984.567,300.0,2308.23,100.0,0.490423,100.0,0.7604095312432445
392,mp-27850,TiNCl,2.960848314364915,-7.886571966666668,2.47889666,0.0,0.5636999999999999,59.432988446666656,TiNCl,798.96,300.0,9345.4,100.0,1.2509,100.0,0.7948297708829164
393,mp-31212,K2MgF4,2.7269565945971626,-5.017607264285714,-1.91835679,0.0,6.2149,6.778031249986003,K2MgF4,1367.82,1300.0,563.416,100.0,0.0913042,100.0,5.772531666270545
394,mp-9789,CaPS3,2.460616950569083,-5.3232977715,3.00210138,0.0,3.0848000000000004,11.388670276666666,CaPS3,1207.43,1100.0,1479.02,100.0,0.273203,100.0,3.4200669269475537
395,mp-616544,RbCr3S5,3.7515231042041113,-6.735224210555556,4.48610783,0.0,0.0,16.16906693666667,RbCr3S5,922.021,100.0,2894.53,1300.0,0.142997,100.0,8.604046691805447
396,mp-10461,NaSr3SbO6,5.052120979105783,-6.392569182727272,2.55134284,0.0,2.9095,13.624476900000005,NaSr3SbO6,1252.73,1100.0,1115.66,100.0,0.209604,100.0,3.6196730942207487
397,mp-10161,KZnSb,3.816814770713926,-2.620778636666667,2.37522488,0.00983951666666627,0.34460000000000024,22.974013259966014,KZnSb,833.547,200.0,6123.31,400.0,1.25705,100.0,0.7897155055015997
398,mp-9636,CsSbF6,3.846453855052181,-4.98739322375,-2.99132544,0.0,5.0381,5.070493726942281,CsSbF6,1329.0,1300.0,164.536,100.0,0.021815,800.0,9.769157371643363
399,mp-17577,Ca6MnN5,2.9202184383456786,-6.2414400075000005,3.75432718,0.0,0.7323999999999997,15.523891786668372,Ca6MnN5,1131.55,300.0,678.024,1300.0,0.0301964,200.0,17.249981970526154
400,mp-6406,Na2MgSiO4,2.5748193527303744,-6.490152633125,1.21093376,0.0,3.9455999999999998,5.6147974000000005,Na2MgSiO4,1304.38,1300.0,561.748,100.0,0.105773,100.0,4.517987024204339
401,mp-21137,Ca2PbO4,5.824536010860793,-6.481919202857142,3.16937314,0.0,1.4813,15.235767266666668,Ca2PbO4,1213.37,600.0,1236.4,100.0,0.268483,100.0,1.8079959061156294
402,mp-23295,RbCl,2.671979177096913,-3.659405805,-1.81796229,0.0,4.8388,5.651929926679217,RbCl,1340.16,1300.0,812.036,100.0,0.156932,100.0,4.646726172561752
403,mp-11265,BaCaSn,4.240256344700143,-3.32083233,3.29969359,0.0,0.24370000000000003,39.37156558333333,BaCaSn,855.102,100.0,5517.44,1300.0,0.509037,100.0,3.962726663570866
404,mp-981511,Y3SbO7,5.5417960474610926,-8.69063146909091,3.4072269,0.0,2.8091000000000004,41.09118236333333,Y3SbO7,1159.76,1100.0,1852.11,100.0,0.348548,100.0,3.097152078703264
405,mp-981511,Y3SbO7,5.5417960474610926,-8.69063146909091,3.4072269,0.0,2.8091000000000004,41.09118236333333,Y3SbO7,1159.76,1100.0,1852.11,100.0,0.348548,100.0,3.097152078703264
406,mp-9392,Sr4Al6TeO12,3.253716548304334,-7.341150237391304,1.8677129,0.0,2.838,9.149425366666668,Sr4Al6TeO12,1219.59,900.0,395.295,100.0,0.0235055,900.0,15.842068360299644
407,mp-753785,NbOF3,3.2602112106548673,-7.417287042,-2.94569866,0.033699999000000425,3.2629,6.395981693333333,NbOF3,1266.09,1100.0,1895.51,100.0,0.206057,100.0,6.389839682955299
408,mp-757074,BaCa2I6,3.802275105855968,-3.592223062222222,0.5296314,0.029202725277777564,3.8624000000000005,8.114843800000001,BaCa2I6,1273.15,1300.0,1195.45,100.0,0.170335,100.0,5.687961846662827
409,mp-16236,KAgSe,4.626412453694586,-3.3020489983333334,1.56917696,0.0,0.48219999999999996,18.24601704,KAgSe,966.461,200.0,2960.28,100.0,0.481409,100.0,0.7658187396037398
410,mp-9984,SnS2,3.841032282604105,-4.803513665,3.02052399,0.0007244083333333151,1.4856999999999996,12.476000009288263,SnS2,1220.17,600.0,4691.4,100.0,0.933005,100.0,1.9963096698807146
411,mp-8932,Cs2SiP2,3.4395422806092246,-4.0759528750000005,3.18273867,0.0,1.2699000000000003,10.705570569999992,Cs2SiP2,970.726,600.0,2946.33,100.0,0.627628,100.0,1.1796173015289446
412,mp-12442,KAuF6,4.374116701796298,-3.8051060987499996,-3.31879269,0.0,2.1117,6.462236569989102,KAuF6,1237.6,700.0,668.08,100.0,0.12486,100.0,2.4585950119673234
413,mp-24199,LiHF2,2.1562411515669577,-4.8217436,-3.44629557,0.0,8.0448,8.161886985176364,LiHF2,1376.85,1300.0,624.97,100.0,0.105973,100.0,5.589940740022575
414,mp-6675,Na2Zn(SiO3)2,2.968841092427603,-6.756410045454545,0.74928604,0.0,3.8766000000000003,6.223075873333297,Na2Zn(SiO3)2,1289.35,1200.0,224.544,100.0,0.0232684,600.0,10.160356097618743
415,mp-30056,CsCaBr3,3.5625632167978174,-3.868912384,-0.59898138,0.0,4.3923,19.81658875333334,CsCaBr3,1258.91,1300.0,1591.32,100.0,0.406362,100.0,3.10315738783559
416,mp-504849,Cs2Li2SiO4,4.156556312410095,-5.8967799211111105,1.60654791,0.0,3.8424000000000005,9.78650122,Cs2Li2SiO4,1257.69,1300.0,659.334,100.0,0.113759,100.0,4.58391890571892
417,mp-554646,TeS4(NCl)4,2.382354825948561,-4.849364363846154,0.54859118,0.3182262915512819,1.9096999999999997,6.509739276660437,TeS4(NCl)4,1159.97,700.0,442.294,100.0,0.0744065,100.0,2.3994678817132824
418,mp-17167,Be3Cd4Si3TeO12,4.465133765587605,-6.639369769347826,0.94126852,0.0,0.0,8.309390046666667,Be3Cd4Si3TeO12,1274.95,1000.0,662.831,100.0,0.0804253,400.0,6.698328356124113
419,mp-19956,Ba2InO3F,5.978945637296668,-6.20251072,2.6603006,0.0,2.0466999999999995,24.599475933333334,Ba2InO3F,1158.33,700.0,2925.31,100.0,0.4598,100.0,2.5608774293169154
420,mp-33319,Pr3NF6,6.0443971344646945,-7.179379132999999,2.89915706,0.057751982000002755,3.3108,66.55229771000002,Pr3NF6,1215.3,1100.0,1146.67,100.0,0.23322,100.0,3.1467464629882937
421,mp-20496,Ga2PbO4,6.1781496862420155,-6.292973642142856,1.72057801,0.0,3.4457000000000004,21.639104953333334,Ga2PbO4,1235.17,1200.0,1140.76,100.0,0.206915,100.0,3.9252069573315134
422,mp-753946,LiCoS2,3.746000926660213,-5.3312854425000005,4.93231134,0.00253559624999955,0.4485999999999999,21.26679951168236,LiCoS2,1149.57,200.0,6469.19,1300.0,0.317748,100.0,14.349496149557899
423,mp-4156,Li2ZrO3,4.032147565131905,-7.575108642499999,1.20637197,0.0,3.6433,38.09093577000001,Li2ZrO3,1315.13,1300.0,1425.39,100.0,0.359304,100.0,3.430670668403485
424,mp-31268,AlBiBr6,3.832774388805305,-3.5158638125,-0.94793906,0.01140890531249994,2.5722,8.48296022,AlBiBr6,1232.88,900.0,997.203,100.0,0.170137,700.0,5.048403826162518
425,mp-696379,BH3OF4,1.9486173738896113,-5.560199626666667,-3.8748985,0.0,7.657299999999999,4.313198446666667,BH3OF4,1339.67,1300.0,198.437,100.0,0.0177666,1000.0,16.036292869856446
426,mp-556229,Li2MnF5,3.027126827041776,-5.815385597500001,-0.9442579,0.0,1.8414,8.045633439999998,Li2MnF5,1102.75,700.0,979.394,100.0,0.146867,100.0,2.432812300313464
427,mp-19189,K2Co(SeO3)2,3.791136117091015,-5.79638881,2.51418487,0.0,0.0,10.194558077167713,K2Co(SeO3)2,1127.47,500.0,1048.15,200.0,0.21658,100.0,1.6405286201044544
428,mp-29443,PI2,3.3323309636323595,-3.134573235,1.00331229,0.0,1.9194999999999998,4.245879326666667,PI2,1089.27,700.0,1565.85,100.0,0.311673,100.0,1.7883121018677897
429,mp-3519,ZrSO,4.809910036880305,-8.724789924166666,4.00326534,0.0,2.4195,17.71867262666667,ZrSO,1146.74,900.0,2393.2,100.0,0.441446,100.0,2.6139830182397183
430,mp-8673,Li2SnTeO6,5.1694769237305715,-6.0698080605,3.57396766,0.0,2.0044999999999997,13.943154126666665,Li2SnTeO6,1171.1,800.0,1029.43,100.0,0.19545,100.0,2.407841264484181
431,mp-9010,RbAuS,5.347005454477988,-3.724868036666667,1.25828101,0.0,1.9946,12.198060043352674,RbAuS,1088.6,800.0,2521.48,100.0,0.528612,100.0,1.8842300043262983
432,mp-558628,KLi2BO3,2.1632804289674263,-6.240345779285714,-0.02278641,0.0,3.999,8.885043090000002,KLi2BO3,1290.26,1300.0,388.048,100.0,0.0571955,1000.0,9.035829820603993
433,mp-27833,Tl2TeCl6,4.456701372686942,-3.331132047777778,1.28339589,0.0,2.5741000000000005,5.152627780000292,Tl2TeCl6,1184.57,900.0,921.715,100.0,0.125922,100.0,3.7660660467007716
434,mp-9986,CsAuO,6.716826689003051,-4.104620646666667,1.451468,0.0,1.3835,8.316880692638595,CsAuO,1101.33,400.0,512.36,100.0,0.0573518,100.0,2.1671705915894672
435,mp-7848,AlPO4,2.103308279767517,-7.945920991666667,-0.70416012,0.0,5.669599999999999,3.7772712399974715,AlPO4,1315.53,1300.0,645.901,100.0,0.12168,100.0,4.593230849615757
436,mp-553896,K3MoF6,2.7897050721152628,-5.500043798,-0.46323876,0.0,3.3529999999999998,2.6972154933330343,K3MoF6,1227.67,1100.0,290.999,100.0,0.00987364,1000.0,32.57458719850013
437,mp-341,PbF4,5.807856049099866,-4.470732428,-1.89156655,0.0,1.9144999999999999,9.129611082150673,PbF4,1301.21,700.0,619.582,100.0,0.11827,100.0,2.660971570394875
438,mp-2352,Na2O,2.350349561031629,-3.969514093333333,0.65267651,0.0,1.8736000000000002,7.569727949437275,Na2O,1367.49,700.0,510.224,100.0,0.0849621,100.0,3.3690326352266085
439,mp-23292,HgBr2,5.1993944046800324,-2.0232889183333334,-1.73969353,0.0,2.5527,8.962334110016267,HgBr2,1268.69,900.0,1475.48,100.0,0.315276,100.0,2.7620076621871537
440,mp-626165,NaH9O5,1.3126984737965142,-5.068587780666666,-2.00537866,0.05230300400000054,3.8286,8.158096876666667,NaH9O5,1264.58,1200.0,59.2941,100.0,0.00162351,200.0,29.202439689721416
441,mp-18780,K2WO4,3.9517257234973155,-7.258172926428571,-1.10452714,0.0,4.3858,9.317697570000002,K2WO4,1250.45,1300.0,766.502,100.0,0.145733,100.0,4.112046842398958
442,mp-557519,CaCrF6,2.681304623812295,-6.18352664,-2.79837233,0.0,1.4044,5.977713143330952,CaCrF6,1233.55,600.0,257.144,100.0,0.0329272,100.0,3.16886575483094
443,mp-19717,TePb,7.856997090559908,-4.044719665,5.11774509,0.0,0.8063000000000002,379.8380929833336,TePb,932.894,500.0,15762.0,100.0,1.94307,100.0,1.6472679992974832
444,mp-2074,Li3Sb,3.3521002851555632,-3.1491007300000002,4.20198948,0.0,0.7073999999999998,22.312585686543148,Li3Sb,937.976,300.0,13169.4,100.0,2.56038,100.0,0.7542125675433577
445,mp-8666,CsAgO,4.95238411741756,-3.889356920833333,0.95464524,0.0,1.4719000000000002,7.933664896666667,CsAgO,1071.43,500.0,989.766,100.0,0.198409,100.0,1.3362125701622833
446,mp-560977,KTiPS5,2.202740490524101,-5.6309957475,1.48978553,0.0,1.2217,11.478593210000001,KTiPS5,1152.99,500.0,796.154,100.0,0.129744,100.0,1.9034333087414776