,material_id,formula_pretty,density,energy_per_atom,efermi,energy_above_hull,band_gap,e_total,formula,data.Sᵉ.p.v.value,data.Sᵉ.p.T.value,data.σᵉ.p.v.value,data.σᵉ.p.T.value,data.κₑᵉ.p.v.value,data.κₑᵉ.p.T.value,ZT
223,mp-8212,Cd(PtO2)3,10.768418730291733,-5.962134896,4.58867672,0.0,0.21370000000000022,19.260006073332963,Cd(PtO2)3,979.515,100.0,20738.4,1300.0,0.512096,100.0,19.42746117441861
224,mp-7188,Al2Os,9.597862886389052,-6.801599826666667,9.1716797,0.0,0.2898999999999994,33.55375367334392,Al2Os,735.536,200.0,15558.2,1300.0,2.27669,100.0,1.971796290638925
225,mp-29174,SiCl2,1.646124821718993,-4.431519193333333,-0.08388791,0.060966750416667104,2.0151,3.55514728,SiCl2,1040.72,800.0,3998.1,100.0,0.580723,100.0,2.4855996101268243
226,mp-34857,KNO2,1.8142954770589983,-6.128415495,-0.87046798,0.0,2.5157,4.5677075899999995,KNO2,1269.82,800.0,611.351,100.0,0.102205,100.0,3.2150042823429117
227,mp-560441,BaZn2Si2O7,4.1257876870950385,-7.016437285416667,1.10326436,0.0,3.4811000000000005,9.560792413333331,BaZn2Si2O7,1205.52,1200.0,967.185,100.0,0.180273,100.0,3.6386014403180234
228,mp-8299,Sr4As2O,4.368382027072182,-4.7093218199999995,2.53445874,0.0,1.1923999999999997,95.21990531084992,Sr4As2O,1057.83,500.0,2833.39,400.0,0.411589,100.0,2.5677521498340736
229,mp-759234,Li3CuF6,3.190962412869796,-4.737802726,-1.60026496,0.0031694315000079243,0.33330000000000015,8.322946146666666,Li3CuF6,1183.98,300.0,153.424,100.0,0.0130434,300.0,3.847405895991095
230,mp-3792,YAlO3,5.187109823159548,-8.7319481845,4.50416888,0.01883583805000022,5.5402,15.949112836666666,YAlO3,1318.96,1300.0,1339.05,100.0,0.334156,100.0,3.4856259840261425
231,mp-540659,Ba(BO2)2,3.5705673665429143,-8.106868377142856,0.06293808,0.0,4.522399999999999,7.6094805299653645,Ba(BO2)2,1210.79,1300.0,964.094,100.0,0.150801,100.0,4.686221517099574
232,mp-780671,SrTaNO2,7.762779080637954,-9.1024822115,4.20727024,0.003640330499990796,0.6686000000000005,140.5530825666667,SrTaNO2,914.496,300.0,5317.78,100.0,0.93938,100.0,0.7890443726095231
233,mp-29337,Tl3BS3,6.199362196409933,-4.376296277142857,3.07582058,0.0,1.4222000000000001,21.865122109999998,Tl3BS3,1011.82,600.0,3996.85,100.0,0.837164,100.0,1.3034145260286527
234,mp-18300,Ca3AlSb3,4.043705726280378,-4.081434248571429,4.72748469,0.0,0.25340000000000007,21.232871603333333,Ca3AlSb3,738.395,200.0,5998.28,100.0,0.874147,100.0,0.49883681126206264
235,mp-8547,PdPtF6,6.140604601987188,-4.4398135524999995,-0.04247631,0.0,0.0,8.175066776665638,PdPtF6,1138.34,300.0,756.635,1300.0,0.092049,100.0,6.035857974268015
236,mp-675104,Na3YCl6,2.2148125024104495,-4.518190414,-1.3303718,0.0,5.154999999999999,7.071385413333334,Na3YCl6,1349.7,1300.0,618.444,100.0,0.0920649,100.0,6.118582141619442
237,mp-19103,LiCrP2O7,2.922530805969322,-7.858766455454545,1.27975342,0.0,2.433,6.586789560000001,LiCrP2O7,1186.33,1000.0,358.652,100.0,0.0669537,100.0,3.0155719315809146
238,mp-567504,CrCl3,2.4615439556714476,-5.39385385625,0.42204462,0.0,1.5182,4.95802827012117,CrCl3,1138.12,500.0,705.664,100.0,0.111672,500.0,3.001243335727743
239,mp-568436,Sr7GeN6,4.74189647533553,-5.480834084821429,2.71018202,0.0015096592857153368,1.1837999999999997,20.919174176666665,Sr7GeN6,1178.44,400.0,486.746,100.0,0.0796806,300.0,2.2622129213266153
240,mp-4122,GaPO4,3.356908549761144,-7.287282991666667,-0.02610094,0.010526978333345482,4.439100000000001,5.802451769998967,GaPO4,1331.19,1300.0,293.621,100.0,0.0409828,200.0,6.771179201812767
241,mp-30005,Rb6Br4O,3.2629071275943464,-3.3858581936363636,0.62001369,0.0,1.5308000000000002,7.2401651466666666,Rb6Br4O,1203.62,500.0,204.702,100.0,0.00250434,500.0,43.41892006412569
242,mp-18594,K3AsSe3,2.9329165117525555,-3.761259435357143,0.16201532,0.0,2.0726,9.334273666666666,K3AsSe3,1183.84,700.0,482.045,100.0,0.0701026,600.0,4.4972419991605275
243,mp-7744,LiSO3F,2.0041431876356963,-6.024723802500001,-1.63374801,0.0,5.7916,3.471185136667018,LiSO3F,1247.71,1300.0,345.283,100.0,0.0135681,1000.0,31.693737694950965
244,mp-23648,Li4Al3Si3ClO12,2.247850376282466,-7.312399488695652,0.10028284,0.0,5.2936000000000005,5.342226353333333,Li4Al3Si3ClO12,1368.78,1300.0,244.186,100.0,0.0188834,200.0,12.921311540242185
245,mp-34460,Ag3AuS2,6.072211434500265,-3.5738936066666667,0.66739269,0.0,1.5633999999999997,6.600578369999998,Ag3AuS2,1084.31,700.0,3776.09,100.0,0.799932,100.0,1.6650123042294032
246,mp-20187,LiInSe2,4.262782502646249,-4.019575195,1.5806244,0.0,1.5731,9.138605036662852,LiInSe2,1142.9,700.0,2455.38,200.0,0.707401,100.0,1.5112915542508423
247,mp-703568,BaH2(SO4)2,3.184487567622092,-6.426176670384615,0.1097284,0.0007588246153744649,5.5546999999999995,8.018968899999999,BaH2(SO4)2,1311.45,1300.0,42.4257,100.0,0.00444572,100.0,8.206545644387665
248,mp-11114,KCuPdSe5,4.867372794417467,-4.2016870825,2.34675109,0.0,0.9195000000000002,15.53759396,KCuPdSe5,1084.71,400.0,2558.56,100.0,0.630578,100.0,0.9548036592988961
249,mp-9306,Sr2ZnN2,4.58736730066455,-4.970875432000001,2.69200818,0.0,0.7944999999999998,17.83657515671312,Sr2ZnN2,1068.82,300.0,2688.77,100.0,0.423168,100.0,1.2097586281096189
250,mp-7773,Na2AsAu,5.670564771631715,-3.13398489875,2.27166161,0.0,0.4175,22.862000353343756,Na2AsAu,823.763,200.0,7279.93,100.0,1.48206,100.0,0.44443138106389835
251,mp-14017,K3Sb,2.2445182590446504,-2.3161805862500002,0.77405333,0.0,0.38939999999999997,13.830952959928709,K3Sb,1177.63,100.0,5188.45,1300.0,0.0914473,100.0,39.34182247296971
252,mp-28595,KNaSe,2.7002912751742425,-3.230276840833333,0.32915487,0.0,2.0175,9.257875123333333,KNaSe,1197.56,800.0,1284.12,100.0,0.279733,100.0,2.1944981326441417
253,mp-643253,Ba2H6Pt,5.981002281035176,-4.022623613333334,1.23788038,0.0,1.7589000000000001,15.239623129999998,Ba2H6Pt,1152.21,600.0,5061.7,100.0,0.798446,100.0,2.2443101033587647
254,mp-623087,Re3(TeBr)7,5.78164242920793,-4.849964459117647,2.3552485,0.0065502958639775954,0.9296000000000002,16.651148773077114,Re3(TeBr)7,1118.23,400.0,197.853,100.0,0.018939,100.0,2.6126297637601112
255,mp-5548,Ta2Cd2O7,7.973791075905666,-8.162142063181818,1.20244851,0.0,2.0269,176.46696519666398,Ta2Cd2O7,1249.89,800.0,2362.02,100.0,0.374941,100.0,3.2805221115503875
256,mp-22170,Li4PbO4,4.811013089954721,-5.379163488333333,1.0866133,0.0,1.4949999999999999,8.760171219999743,Li4PbO4,1221.24,600.0,658.3,100.0,0.151248,100.0,1.7310315679009838
257,mp-554515,KScH4(C2O5)2,1.8282194136278098,-7.2354696155,-1.79135062,0.016092564374995177,3.0704000000000002,5.907235316666802,KScH4(C2O5)2,1241.69,1100.0,298.043,100.0,0.0329185,100.0,6.049052494502846
258,mp-570922,MgCl2,1.8039842372428156,-3.947550543333333,-1.363911,0.08369513666666739,4.8767,4.5320691433333335,MgCl2,1358.27,1300.0,645.113,100.0,0.0984782,100.0,6.042795724464387
259,mp-28364,Rb2CdO2,4.690644449951258,-3.9170275494999998,0.60747686,0.0,1.3109,11.131109266666664,Rb2CdO2,1210.09,500.0,455.654,100.0,0.0726126,100.0,2.144052072562237
260,mp-38605,Sn(BiTe2)2,7.114758679476172,-3.9771178742857143,5.36808141,0.0,0.42680000000000007,150.98365908421368,Sn(BiTe2)2,782.8,300.0,14191.8,100.0,3.65632,100.0,0.39640914754507256
261,mp-752395,Ba2Na2O3,4.276527359106488,-5.196661178928571,1.13167899,0.08005096392856981,1.9318,15.647417436666666,Ba2Na2O3,1198.16,700.0,739.068,100.0,0.107885,100.0,2.95035463104404
262,mp-4192,Ca3AsN,3.1926138267129844,-4.968360585,3.51863597,0.0,0.8940000000000001,28.22379531,Ca3AsN,920.789,500.0,4836.51,200.0,1.44512,100.0,0.7566885382688666
263,mp-546125,ScAsO4,4.237270005421462,-7.817117708333332,2.11197968,0.0,3.5491,14.20012091024767,ScAsO4,1296.64,1300.0,1042.69,100.0,0.182162,100.0,4.811785475875935
264,mp-22905,LiCl,2.0582436019090733,-3.99517919,-0.02569685,0.0204748575,6.306,10.315526049977075,LiCl,1327.7,1300.0,2048.68,100.0,0.390969,100.0,4.6185082004931335
265,mp-9272,TlPt2S3,8.187477566401977,-5.17935061,4.07000158,0.0,1.0255999999999998,18.034624639999997,TlPt2S3,1040.83,400.0,4340.5,100.0,0.848423,100.0,1.1084520880198792
266,mp-571146,SnICl,4.445907320757535,-3.5352963400000004,2.46076628,0.0,2.5118,25.400100968153353,SnICl,1200.11,900.0,1446.83,100.0,0.239108,100.0,3.195486138327042
267,mp-23339,NaBrO3,3.159524368250208,-4.563571542,-0.17294211,0.0,4.4812,6.253947973333332,NaBrO3,1259.72,1300.0,291.374,100.0,0.0298575,500.0,9.807938868779047
268,mp-569114,BaAg2SnSe4,5.555595827459082,-4.16684470625,3.12994403,0.0,0.0653999999999999,14.454893396666668,BaAg2SnSe4,344.925,100.0,6518.85,1300.0,82.7651,100.0,0.004685361386810571
269,mp-23070,BaBrF,4.947718750989773,-5.246223691666667,0.01544395,0.0,4.8824,9.66224997,BaBrF,1284.59,1300.0,1093.53,100.0,0.231622,100.0,3.8953812796526077
270,mp-19178,CoAgO2,7.308028562694464,-5.97368530125,2.79283801,0.0,1.3319999999999999,15.808172749738425,CoAgO2,1101.18,200.0,15480.9,1300.0,0.228907,100.0,43.737352367567404
271,mp-758533,Li3Sb(PO4)2,3.5439899965973414,-6.806385568571428,3.50658817,0.08122143714285723,2.7710000000000004,22.835163063486217,Li3Sb(PO4)2,1158.54,1100.0,1880.59,100.0,0.364468,100.0,3.00108905005189
272,mp-9915,LiBeP,1.9947325807652352,-4.272328943333333,4.01325143,0.0,1.8171000000000004,15.240585836666668,LiBeP,1021.05,500.0,7217.19,200.0,1.01414,100.0,1.9784859825880645
273,mp-761669,Li2Ti3CoO8,3.807862180891306,-8.248780945892857,2.4768006,0.039991247857143364,1.8695,56.81537787674902,Li2Ti3CoO8,1188.96,700.0,491.923,100.0,0.0680081,100.0,3.067554090855281
274,mp-33932,NbHO3,3.996227663583836,-8.142377935499999,-0.06760456,0.033637553535609044,2.6275999999999997,30.057162610000002,NbHO3,1290.9,900.0,381.048,100.0,0.0479155,300.0,5.742631664606401
275,mp-4649,PdSe2O5,4.265618090629221,-5.6983452393750005,1.34244843,0.0,1.0057,6.15273303,PdSe2O5,1101.48,300.0,864.851,100.0,0.146957,100.0,1.190016534570918
276,mp-11390,LiGaSi,3.41075944768119,-3.593635866666667,4.75435706,0.0706199283333313,0.18850000000000033,24.6551273966667,LiGaSi,780.557,100.0,26458.9,1300.0,2.94495,100.0,2.736989360810076
277,mp-29754,SrLiN,3.2711547178089724,-4.595226806666667,1.65291701,0.0,0.24949999999999983,13.481416296666671,SrLiN,826.956,100.0,4475.62,1300.0,0.330949,100.0,4.624097069221663
278,mp-707532,NaH8SeNO6,2.029596434625751,-5.312140202352942,-1.72235263,0.08461447771241559,3.8639,5.090202013333333,NaH8SeNO6,1279.24,1200.0,264.844,100.0,0.015312,1000.0,21.70045604321745
279,mp-569548,CsAuBr3,5.130668149006479,-3.037361362,0.06261637,0.0,0.653,20.7643134864289,CsAuBr3,902.097,300.0,9338.45,200.0,2.25429,100.0,0.6742197745945797
280,mp-557719,PbS,2.684549064691887,-4.65095655625,-1.22971819,0.058116138749998214,2.0962,125.58127254666665,PbS,962.067,800.0,12158.4,100.0,1.37467,100.0,2.72877265069829
281,mp-557993,BiO2,8.946084365546868,-6.0550828999999995,3.93896558,0.0,1.1596000000000002,29.988993675353637,BiO2,1176.92,400.0,1258.2,100.0,0.254672,100.0,1.3686498803390081
282,mp-28599,Na4Br2O,2.831117380460665,-3.6194301228571426,0.8846137,0.00031609142857114136,1.9830999999999999,9.880808023355392,Na4Br2O,1263.59,700.0,569.996,100.0,0.1015,100.0,2.689920105157381
283,mp-6930,SiO2,2.477387266586614,-8.363781582222224,0.59940998,0.01047628777777554,5.6705000000000005,4.7346186966799975,SiO2,1313.69,1300.0,688.171,100.0,0.164376,100.0,3.6125490427402815
284,mp-557399,KSnSO4F,3.241153640530869,-6.067508659375,1.04369585,0.007326373988092882,3.8899,13.119267986666665,KSnSO4F,1123.65,1300.0,2061.86,100.0,0.404955,100.0,3.2142860570802325
285,mp-29423,TlFeBr4,4.30951927195203,-3.9245514108333333,0.0570915,0.0,0.0359,12.85806205,TlFeBr4,1127.05,400.0,735.073,100.0,0.110162,100.0,1.695176883102671
286,mp-561647,Cs2TeOF4,4.279540582706663,-4.807238864375,-0.4041418,0.0,5.0319,9.981660393333334,Cs2TeOF4,1307.36,1200.0,355.288,100.0,0.00885534,1300.0,59.43164870536859
287,mp-617,PtO2,9.198821418850256,-6.2441505133333335,2.47480799,0.004804081666666349,1.6099,9.292591353398894,PtO2,1201.87,500.0,968.583,100.0,0.14085,100.0,2.3177776246108737
288,mp-617,PtO2,9.198821418850256,-6.2441505133333335,2.47480799,0.004804081666666349,1.6099,9.292591353398894,PtO2,1201.87,500.0,968.583,100.0,0.14085,100.0,2.3177776246108737
289,mp-4200,ScPO4,3.5854446475017627,-8.610946565833332,3.0189772,0.0,4.5188999999999995,12.194091023333335,ScPO4,1281.67,1300.0,1077.21,100.0,0.186603,100.0,4.741373816130954
290,mp-776081,K2O,2.3659775568601984,-3.54922749,0.63330376,0.08821639333333309,1.7426,16.708360646666666,K2O,1320.61,600.0,347.991,100.0,0.0685205,100.0,2.361921089674286
291,mp-8883,GaAs,5.054169861063834,-4.1813247275,2.78656561,0.014800122500000512,0.22380000000000022,71.1659437100077,GaAs,738.93,100.0,4674.84,100.0,0.861675,100.0,0.2962305578785871
292,mp-9580,TlGaSe2,6.488532044434674,-3.896207555,2.88894344,0.016279992187500092,0.7014,91.35804215999883,TlGaSe2,909.346,300.0,3930.64,100.0,0.692445,100.0,0.7823211237037881
293,mp-29138,KAuSe2,5.569335960381716,-3.66635181875,1.33203243,0.0,0.8850000000000002,10.017438686666663,KAuSe2,983.177,300.0,1762.45,100.0,0.290014,100.0,0.9790615879128225
294,mp-16992,NaAg3S2,5.490070671005377,-3.5304825875,2.326256,0.0,0.9312,16.146218629999964,NaAg3S2,1039.04,400.0,2332.09,100.0,0.427819,100.0,1.1770089574993834
295,mp-7988,Cs2O,4.0479684580546476,-3.4346681366666663,1.61294492,0.0,0.5831999999999997,12.325556865442758,Cs2O,1133.53,200.0,2647.47,1300.0,0.118122,100.0,15.359073586178912
296,mp-5470,AgPS3,3.1115290938506903,-4.593607009,2.02048759,0.009690538000000082,1.3228,9.179871063353689,AgPS3,1124.06,500.0,1905.34,100.0,0.386216,100.0,1.4544473203862573
297,mp-15074,Sr(PIr)2,9.336427975873827,-6.945013316,6.7615515,0.0,0.4416000000000002,53.75263428250884,Sr(PIr)2,829.438,100.0,11406.1,1300.0,1.02584,100.0,3.8246826570109604
298,mp-554138,Pr2SbO5F,6.871546509294029,-7.718880730555556,3.69178694,0.0,3.5176,21.778153223333334,Pr2SbO5F,1261.33,1200.0,533.147,100.0,0.0872618,100.0,4.536146103168854
299,mp-17770,CsPr(PO3)4,3.2703660643414922,-7.739277818333333,0.03993713,0.0,5.483499999999999,6.883018346666667,CsPr(PO3)4,1246.41,1300.0,208.592,100.0,0.0162015,500.0,12.667666425817673
300,mp-677526,Rb2SeO4,3.4641478044235634,-5.395117264285714,-1.10786115,0.01441961357142496,3.6085000000000003,7.080310343333333,Rb2SeO4,1283.45,1100.0,217.052,100.0,0.0129642,1100.0,21.14377650526036
301,mp-554288,NaPH4O5,2.0138288957365544,-6.000500767954546,-0.91195105,0.007611421704552868,5.389,5.94895139,NaPH4O5,1284.77,1300.0,255.812,100.0,0.0323388,500.0,8.269516785229962
302,mp-4016,TlGaS2,5.385392588774033,-4.3033043834375,2.74895333,0.0,1.8552999999999997,21.647788600082293,TlGaS2,943.813,800.0,5754.17,200.0,1.23596,100.0,1.5206232034217546
303,mp-543040,Ga2Te3(HO2)6,4.498488347201121,-5.689347734782609,2.00117588,0.030378642119575083,3.7626999999999997,9.055194693334203,Ga2Te3(HO2)6,1279.66,1300.0,405.522,100.0,0.0559241,100.0,5.937103371619241
304,mp-23657,Na6S2ClO8F,2.409119055807639,-5.5992354805555555,0.07382083,0.0,4.7741999999999996,5.534794376603286,Na6S2ClO8F,1319.98,1300.0,80.6739,100.0,0.00659161,100.0,10.662186006935297
305,mp-9158,LiCuO2,4.35543287037612,-5.426594297499999,2.30504464,0.0,0.0,17.009444273364362,LiCuO2,967.604,100.0,13040.6,1300.0,0.22566,100.0,27.05255598054846
306,0,0,0.0,0.0,0.0,0.0,0.0,0.0,0,0.0,0.0,0.0,0.0,0.0,0.0,0.0
307,mp-2125,TeO2,5.362720571749759,-5.841111950416667,3.89286588,0.0,2.2279000000000004,17.271080723333338,TeO2,1127.07,900.0,2331.28,100.0,0.476835,100.0,2.277191336969699
308,mp-12022,HgB4O7,5.782094457860213,-7.550775792916666,2.81536325,0.07199320427083311,1.7969,14.299906746666666,HgB4O7,1246.8,700.0,735.708,100.0,0.113159,100.0,3.0320141207944213
309,mp-561256,Ba2TiOF6,4.657581619530583,-6.804918677000001,-0.74815877,0.010471723249987797,3.6382000000000003,13.258198273333335,Ba2TiOF6,1310.18,1300.0,1623.93,100.0,0.0994454,800.0,20.55634809388646
310,mp-558480,K2P2O5F2,2.33518915989338,-6.580913708181817,-0.82012528,0.0,5.0435,5.1140178099788125,K2P2O5F2,1228.4,1300.0,186.49,100.0,0.00950547,600.0,19.73650777039606
311,mp-555119,SrTaF7,5.376254959050624,-6.849126708888889,-1.65940383,0.0,5.4935,9.677584076666667,SrTaF7,1293.65,1300.0,592.631,100.0,0.112952,100.0,4.390298306154374
312,mp-556880,SiO2,2.2458001836461055,-8.2283166,0.18842452,0.1459412699999998,5.0612,4.24794759,SiO2,1278.55,1300.0,1039.01,100.0,0.181416,100.0,4.681117882101151
313,mp-27985,YClO,4.4810698579254025,-7.896110508333334,2.44519048,0.04672547833333418,5.0892,22.248861189999996,YClO,1304.23,1300.0,2053.87,100.0,0.359978,100.0,4.85260975941658
314,mp-7938,KNbS2,3.9659895573824295,-6.285622895,5.25065051,0.008581753624999244,0.8120000000000003,12.248739550020074,KNbS2,854.993,400.0,5220.07,100.0,0.82616,100.0,0.9237772798895814
315,mp-8355,KAlSiO4,2.503742337721559,-7.483051232142857,0.83765331,0.002165910357143197,4.5021,6.768934160017577,KAlSiO4,1253.66,1300.0,1453.8,100.0,0.263143,100.0,4.341525794954227
316,mp-28534,CaInBr3,3.8629472691645272,-3.759740196,0.8448708,0.0,2.8725,336.92563199333324,CaInBr3,1145.8,1200.0,1660.43,100.0,0.3441,100.0,2.956380408465834
317,mp-1784,CsF,4.406028855159094,-4.246022955,-1.19267444,0.0,5.2626,9.897891079999988,CsF,1365.58,1300.0,1246.31,200.0,0.225179,100.0,5.504669088473753
318,mp-27300,RbAuBr3,4.752051654543362,-3.0182497350000004,-0.58916032,0.0,0.7293,13.484754066675258,RbAuBr3,957.919,300.0,4120.66,100.0,0.833369,100.0,0.7561984189729258
319,mp-574040,K2SnBr6,3.5128048894524806,-3.3324929794444444,-0.525159,0.0,1.6124,6.640362566666666,K2SnBr6,1186.1,600.0,1164.11,100.0,0.243326,100.0,1.7948032495150261
320,mp-574040,K2SnBr6,3.5128048894524806,-3.3324929794444444,-0.525159,0.0,1.6124,6.640362566666666,K2SnBr6,1186.1,600.0,1164.11,100.0,0.243326,100.0,1.7948032495150261
321,mp-27453,Li7SbO6,3.283949545081623,-5.516351807857142,1.36570586,0.022526039999999803,3.4971999999999994,10.162013536672527,Li7SbO6,1350.56,1200.0,373.958,100.0,0.0519713,400.0,7.437289391822594
322,mp-770839,LiCr(CO3)2,3.1095634384648934,-8.064345943,1.4079855,0.0,3.0397,8.279762221419825,LiCr(CO3)2,1288.43,1100.0,1041.5,100.0,0.212017,100.0,3.5337217023184535
323,mp-642648,KP(HO)2,1.8982049412549022,-5.4943457125,-1.03588382,0.0,5.1321,4.91474862,KP(HO)2,1254.06,1300.0,656.44,100.0,0.126608,100.0,4.076998240610325
324,mp-642648,KP(HO)2,1.8982049412549022,-5.4943457125,-1.03588382,0.0,5.1321,4.91474862,KP(HO)2,1254.06,1300.0,656.44,100.0,0.126608,100.0,4.076998240610325
325,mp-547017,LiAlAs2O7,3.952491097517418,-6.72605842,1.97863586,0.020456591363635646,3.0496999999999996,11.672834510000001,LiAlAs2O7,1258.68,1100.0,881.496,100.0,0.157991,100.0,3.8303702750821245
326,mp-766,As2Ru,8.051426795883398,-6.594670975,6.26836811,0.0,0.44920000000000027,37.764724380000004,As2Ru,842.646,200.0,7240.9,1300.0,1.76671,100.0,1.5520879869078001
327,mp-606510,CsTaI6,4.820912960899452,-3.7615931862500003,1.31037519,0.0,1.1787,12.92337720666667,CsTaI6,1131.8,400.0,1352.21,100.0,0.259035,400.0,2.0060711337545887
328,mp-18957,NaMnO2,4.0369772691366785,-7.1255665356249995,2.58342541,0.0,0.0,11.836102382388157,NaMnO2,847.536,100.0,7148.55,1300.0,0.23412,100.0,10.966442272601697
329,mp-9881,KAuSe,5.363414567976471,-3.52982603,0.77865718,0.0,1.8159999999999998,12.591577686618526,KAuSe,1090.98,700.0,2737.35,100.0,0.582667,100.0,1.677508545270767
330,mp-28263,KH3O2,1.8970138221453332,-4.998377007499999,-1.33456389,0.0,4.3804,7.136676323333334,KH3O2,1312.39,1300.0,520.215,100.0,0.0916374,100.0,4.888841320831351
331,mp-13948,Cs2HfF6,4.956427182728452,-6.346400067777777,-2.72559369,0.0,7.2288,9.403870970000817,Cs2HfF6,1374.94,1300.0,127.396,100.0,0.014041,100.0,8.57620691612512
332,mp-696347,NaH3SO5,2.04286263444251,-5.751250523,-0.9124926,0.007694638250010932,5.3587,5.440884789999999,NaH3SO5,1281.63,1300.0,259.59,100.0,0.0311573,1100.0,11.404394338209423
333,mp-13590,LiB(CN)4,1.1825348451798459,-8.045262299000001,-4.33595993,0.3409848844999992,6.3395,2.7339618499999987,LiB(CN)4,1356.14,1300.0,683.994,100.0,0.112553,400.0,6.705876007741432
334,mp-567386,Cs2Cd3Te4,5.0624074289073775,-2.8097665833333334,1.87569362,0.0,1.5586999999999998,12.758689093333288,Cs2Cd3Te4,1106.43,700.0,3345.85,100.0,0.862275,100.0,1.4250490485983005