,material_id,formula_pretty,density,energy_per_atom,efermi,energy_above_hull,band_gap,e_total,formula,data.Sᵉ.p.v.value,data.Sᵉ.p.T.value,data.σᵉ.p.v.value,data.σᵉ.p.T.value,data.κₑᵉ.p.v.value,data.κₑᵉ.p.T.value,ZT
447,mp-866132,Na2TlSb,5.587378959762188,-2.6476563075,3.62015503,0.0,0.37970000000000015,172.51713974666674,Na2TlSb,988.728,200.0,17722.4,1300.0,1.63907,100.0,5.637381518972146
448,mp-14753,Li7TaN4,3.9675427239660914,-5.823039376875001,1.1843407,0.0,3.3023999999999996,9.447612363333333,Li7TaN4,1275.91,1100.0,432.203,100.0,0.0847671,100.0,3.596852524532693
449,mp-557724,KBiF6,3.9511658364448494,-4.585879203125,-3.62356288,0.0,2.4402,7.458242350000002,KBiF6,1322.21,900.0,339.025,100.0,0.049448,400.0,5.5935902537939075
450,mp-676650,Li6Br3N,2.6823336269642373,-3.7332799299999997,1.13401719,0.04055237287500413,2.0919,22.910612056666665,Li6Br3N,1255.18,700.0,664.196,100.0,0.100963,700.0,5.1822222505905655
451,mp-27791,SrBe3O4,3.5680498490720094,-7.2003497549999995,1.72483318,0.0,4.1301000000000005,8.974431823333335,SrBe3O4,1280.85,1300.0,1511.31,100.0,0.293782,100.0,4.219829680650064
452,mp-569814,TiBr4,2.5958186983565117,-4.54742456225,-3.00043545,0.0,2.7141,2.7806868799999993,TiBr4,1243.02,900.0,242.374,100.0,0.00472799,800.0,47.524435194435206
453,mp-7949,Rb2GeF6,3.8976990966182807,-5.041263845555555,-2.55598636,0.009382291111108998,5.807,7.525143650001627,Rb2GeF6,1372.33,1300.0,136.61,100.0,0.0167153,100.0,7.695829455768938
454,mp-623837,As(CN)3,1.7410477948443435,-7.682596128571428,-3.06743138,0.510110339999998,4.728,4.051188426666667,As(CN)3,1178.81,1300.0,1447.72,100.0,0.31435,100.0,3.1998434885768923
455,mp-648,Na2S,1.8269984120197538,-3.491886876666667,0.35970853,0.0,2.4399,7.035895999008646,Na2S,1303.64,900.0,1093.4,100.0,0.187221,100.0,3.639245004894223
456,mp-9890,TaAgO3,8.945674399821078,-8.316438579,2.44996202,0.02207161599999985,1.6614999999999998,1501.0737042368048,TaAgO3,1287.69,700.0,1388.11,100.0,0.260928,100.0,2.646348877984468
457,mp-555678,Na4Ti5O12,3.601728626107255,-8.070145161904762,4.52719058,0.0,2.4780999999999995,129.13077582333332,Na4Ti5O12,1241.41,900.0,1004.59,100.0,0.1845,100.0,3.076765446596418
458,mp-556878,BiPPbO5,6.8768841424952845,-6.9450235975000005,3.19168437,0.0,3.3519000000000005,21.36734447666667,BiPPbO5,1237.26,1200.0,1048.08,100.0,0.204441,100.0,3.6623105096159305
459,mp-1029,BaF2,4.694963403401799,-6.07795231,-1.97931744,0.0,6.6029,7.1194683367151095,BaF2,1410.64,1300.0,650.992,100.0,0.119216,100.0,5.433047460944518
460,mp-5213,CdSnP2,4.634438610526407,-4.03502815625,3.73822178,0.0,0.26949999999999985,25.65961903337241,CdSnP2,749.34,200.0,5500.78,100.0,1.85461,100.0,0.22205893234982146
461,mp-1943,GaSe,4.408076837120317,-4.08901922875,1.32283105,0.00016086624999811505,1.2386999999999997,8.608604860032868,GaSe,1031.0,600.0,3887.02,500.0,0.482481,100.0,3.4254204134214614
462,mp-558753,BiB2O4F,5.988139839390159,-7.4874725333333325,2.95894464,0.0,4.1919,14.453268663333334,BiB2O4F,1243.1,1300.0,701.661,100.0,0.13891,100.0,3.902797013642681
463,mp-754637,NaCuP2O7,2.5432574113386908,-6.84310485,-0.47703401,0.015068962272727582,0.9349000000000001,7.11189898023109,NaCuP2O7,1118.79,200.0,805.543,1300.0,0.0522368,100.0,10.294566025977154
464,mp-541844,Ge5Ir4,12.501573443580105,-6.847679127777777,7.89354906,0.0,0.15039999999999942,81.74922596333333,Ge5Ir4,702.951,100.0,16311.7,1300.0,11.8574,100.0,0.3398833305026646
465,mp-17008,CaTeO3,3.9586899262880344,-6.396704963,2.01443514,0.012924072599999725,3.2993000000000006,10.17090484333333,CaTeO3,1177.9,1200.0,442.089,100.0,0.0764794,100.0,3.7427331289204933
466,mp-160,B,2.476400292715375,-6.679391770833334,6.15041714,0.0,1.4333999999999998,9.52007649666667,B,882.784,700.0,9054.13,100.0,1.63545,100.0,1.2943139018226557
467,mp-642795,PHSF2,1.8635259084834273,-4.9833017955,-0.55893045,0.0,4.5687,3.137849670000001,PHSF2,1282.52,1300.0,398.234,100.0,0.0689385,100.0,4.750888122935613
468,mp-644203,CsCaH3,2.961551996439553,-3.0997578199999998,-0.27244639,0.012167912999999864,3.1408,9.460530157274448,CsCaH3,1232.05,1200.0,2393.36,100.0,0.488109,100.0,3.4733988809914447
469,mp-6987,Sr(GaTe2)2,5.106504754380688,-3.890391671428571,3.14849283,0.0,0.45189999999999975,14.213112123333332,Sr(GaTe2)2,886.914,200.0,4705.76,100.0,1.07067,100.0,0.46097343341710156
470,mp-34508,Sr(SmS2)2,5.34422168378728,-6.316051257142857,3.78573477,0.012388573214288101,2.1281,22.016581506666665,Sr(SmS2)2,1195.34,800.0,2670.54,100.0,0.498088,100.0,2.5536105219816734
471,mp-13743,K3GaO3,2.9862133782792895,-4.925301336428572,0.11546995,0.0,2.6237,9.651141089999998,K3GaO3,1317.21,900.0,235.196,100.0,0.0353672,100.0,4.230685302434101
472,mp-571281,Ge3N4,5.60362165934089,-6.929319297142858,5.95712245,0.06347081571428514,1.6238000000000001,12.210509479999999,Ge3N4,1273.56,600.0,1771.21,100.0,0.248345,100.0,3.0847657314473076
473,mp-7404,Na3SbO4,4.146619267445617,-5.4917616281249995,2.42203936,0.0,2.1351,11.993562580000003,Na3SbO4,1292.25,700.0,513.934,100.0,0.095889,500.0,3.8784101947012948
474,mp-1367,Mg2Si,1.975370395749873,-3.0040181166666664,3.40203031,0.0,0.21799999999999997,23.00334385666518,Mg2Si,836.353,100.0,18418.0,1300.0,1.58237,100.0,4.070836599953411
475,mp-11660,Hf3N4,12.97488886785176,-10.832144472142858,6.82972607,0.06918367607142883,1.0259,40.5552672,Hf3N4,1037.43,500.0,3201.89,400.0,0.503978,100.0,2.2792458857193902
476,mp-861906,BaNa2Mg(PO4)2,3.7495381140118798,-7.004074207857142,2.0449373,0.0,4.7985,10.739076319339125,BaNa2Mg(PO4)2,1291.99,1300.0,767.797,100.0,0.174678,100.0,3.668567454431296
477,mp-27272,Ca3PI3,3.6682277556051024,-3.9699427789285715,2.64192827,0.0,2.4503000000000004,10.012823776666535,Ca3PI3,1203.97,800.0,589.188,100.0,0.0646977,200.0,4.840250211557567
478,mp-9490,KAg2SbS4,3.9210859214592033,-4.0606954024999995,2.1818204,0.005941895993055724,0.5695999999999999,11.121774869999996,KAg2SbS4,995.454,300.0,3308.0,100.0,0.742089,100.0,0.7362081968406592
479,mp-680111,CdI2,5.061638982957075,-2.160944966666667,1.03202757,0.001801674999999836,2.3667999999999996,11.056862683335787,CdI2,1255.23,900.0,2501.64,100.0,0.472214,100.0,3.0605818951574437
480,mp-778819,LiMnF3,3.101048950353377,-6.3331525740000005,-0.1786243,0.07529504599999992,2.9983,16.061790416666664,LiMnF3,1252.37,1200.0,708.921,100.0,0.140156,100.0,3.7021860448564707
481,mp-27178,HgPS3,4.241494369862279,-4.112753571000001,1.60936148,0.0,1.7549,11.688609086666666,HgPS3,1166.3,700.0,2341.53,100.0,0.70828,100.0,1.3490764270369202
482,mp-29110,Al2(FeSi)3,5.1637809487982995,-6.601094414375,9.19456907,0.0,0.0,52.02192455333335,Al2(FeSi)3,743.919,100.0,9397.52,1300.0,1.23119,100.0,2.112075726771078
483,mp-7233,La2SeO2,6.173819004443929,-8.144214178000002,5.73353796,0.0,2.4067,16.758921036118775,La2SeO2,1131.17,900.0,2328.94,200.0,0.476276,100.0,2.50273778836974
484,mp-644494,Rb2H4Pd,3.084692691088394,-3.332752727142857,-1.4904801,0.0,2.9313000000000002,6.185415143333333,Rb2H4Pd,1242.99,900.0,238.401,100.0,0.0278305,100.0,4.852815316845166
485,mp-23267,BeCl2,1.6583287032878606,-4.316295794999999,-2.00823734,0.0,6.061,3.0963501064757097,BeCl2,1293.04,1300.0,676.702,100.0,0.101952,100.0,5.54875608686246
486,mp-19034,Mg3V2O8,3.3547417623556566,-7.571671166923077,1.61575135,0.0,3.3068,9.6530723233301,Mg3V2O8,1258.66,1200.0,811.801,100.0,0.142997,100.0,4.197070824129891
487,mp-22856,Bi2S3,6.478231082781669,-4.68184903,4.14431336,0.0,1.3617999999999997,63.63719022,Bi2S3,1095.41,600.0,2343.24,100.0,0.326638,100.0,2.2954730558760414
488,mp-8232,BaZrF6,4.514124228721463,-6.87248139,-2.05106418,0.0,5.927300000000001,11.822141319999945,BaZrF6,1340.2,1300.0,981.868,100.0,0.190116,100.0,4.6381380349963175
489,mp-27828,Cs2TiCl6,2.9633620564563734,-4.552943217777777,-0.71263014,0.0,2.2291,8.653849300003928,Cs2TiCl6,1235.7,800.0,897.489,100.0,0.151524,100.0,3.014758626302566
490,mp-759069,B(HO)3,1.502911704718532,-6.381443278809524,-2.70641352,0.002556150476190844,6.0809,2.807683156666332,B(HO)3,1316.82,1300.0,248.462,100.0,0.0275643,100.0,7.815123423499393
491,mp-23023,LaBrO,5.900493870704993,-7.252163561666666,4.08470138,0.0,3.7256,14.08603139666667,LaBrO,1261.98,1300.0,2118.48,100.0,0.47038,100.0,3.586331817995017
492,mp-768907,Sr3TeO6,5.179925351189741,-6.5172774449999995,2.4561447,0.022140137500001877,3.0593999999999997,15.637742413332154,Sr3TeO6,1296.16,1100.0,889.698,100.0,0.173932,100.0,3.7239380765442376
493,mp-18168,TlZnPO4,5.448736771280674,-6.344897569285714,1.38822829,0.0,3.8996000000000004,13.902253649999999,TlZnPO4,1255.84,1300.0,614.965,100.0,0.0892461,300.0,6.1582518000805875
494,mp-865101,NaLi2Bi,4.737795744467637,-2.7429925875,2.95059355,0.0,0.32509999999999994,25.370459730000004,NaLi2Bi,872.912,200.0,9274.32,1300.0,1.47401,100.0,2.5569445049919515
495,mp-865101,NaLi2Bi,4.737795744467637,-2.7429925875,2.95059355,0.0,0.32509999999999994,25.370459730000004,NaLi2Bi,872.912,200.0,9274.32,1300.0,1.47401,100.0,2.5569445049919515
496,mp-30284,HgAsO3,6.488267456776306,-5.3269152769999994,0.35074594,0.0,1.2350999999999999,13.697749789998744,HgAsO3,1045.29,500.0,3504.28,100.0,0.748795,100.0,1.193125810612412
497,mp-761036,CdSeO4,4.646706061039976,-5.351390516666666,-0.08181014,0.0,1.6838,10.316021543333331,CdSeO4,1140.32,700.0,1393.15,100.0,0.28117,100.0,1.932874408612469
498,mp-675022,CsPbCl3,3.936450729324876,-3.9082919239999994,0.59343321,0.011752994999993494,2.6799,38.41741133666667,CsPbCl3,911.214,1100.0,8054.61,100.0,2.10137,100.0,1.379128883382625
499,mp-28413,Na2(GaSb)3,4.717965587878608,-3.353283804375,3.58945093,0.0,0.6829999999999998,25.52395678333333,Na2(GaSb)3,552.295,100.0,5324.88,100.0,2.85581,100.0,0.05687517397292123
500,mp-4979,AlCuS2,3.435993537364091,-5.08987056125,5.01165731,0.0,1.6917999999999997,8.676691023322114,AlCuS2,1161.39,700.0,1978.44,100.0,0.580179,100.0,1.3798703985438583
501,mp-2667,CsAu,6.514133851114585,-2.39192245,1.12257061,0.0,1.0232999999999999,10.205225480000003,CsAu,778.017,600.0,7974.69,100.0,2.13566,100.0,0.6027380401705097
502,mp-23326,Ca4Cl6O,2.581244690068608,-5.083842272272727,1.12461196,0.0,5.2239,11.284874056648578,Ca4Cl6O,1266.48,1300.0,806.299,100.0,0.0833139,700.0,10.866091763289807
503,mp-559377,IOF3,3.727044399719165,-4.089713606,-1.0899979,0.0,3.637,6.656710480000001,IOF3,1268.65,1300.0,980.441,100.0,0.233087,100.0,3.38498745868436
504,mp-7610,Li2CaSiO4,2.8623439964648494,-6.910444989999999,2.02386337,0.004956160781250496,5.189699999999999,10.334637200000001,Li2CaSiO4,1306.9,1300.0,898.698,100.0,0.177599,100.0,4.321434943698388
505,mp-554791,RuO4,2.920827691487435,-6.99522299375,-3.06285658,0.0,2.2052,2.772858653333335,RuO4,1291.96,800.0,391.751,100.0,0.0430232,700.0,8.105956482486246
506,mp-16031,Sn3N4,7.16496473774736,-6.469008936428572,7.87746255,0.013090387142856486,0.23439999999999994,18.378084636592188,Sn3N4,1047.8,100.0,7799.09,1300.0,0.584041,100.0,7.330395192114594
507,mp-971787,VBr2,4.065954415128114,-5.328173076666666,2.33316968,0.0,0.9317000000000002,5.058534349903588,VBr2,1195.5,400.0,546.547,100.0,0.0866126,100.0,1.8037468912762114
508,mp-551135,BaCuB2O5,4.066481626766127,-7.492341373333334,1.89780508,0.02775153777777639,0.5047000000000001,9.255947966666666,BaCuB2O5,1056.19,200.0,935.217,1300.0,0.109217,100.0,5.09454004242853
509,mp-567655,Sr2C(NCl)2,3.1247493635421173,-6.570548317142857,1.08433203,0.0,4.202,7.7150891,Sr2C(NCl)2,1262.57,1300.0,1111.88,100.0,0.18309,100.0,4.8403217310836535
510,mp-541190,Cs2LiVO4,4.020440714703337,-6.440591501875,0.11328535,0.0,3.9955,8.924820700000001,Cs2LiVO4,1294.93,1300.0,457.461,100.0,0.070232,100.0,5.461118849578958
511,mp-676561,Ag3SI,6.417371315030583,-3.08771653,2.58218914,0.06572331400000042,0.3330000000000002,16.914662206663575,Ag3SI,935.873,200.0,3625.69,1300.0,0.456484,100.0,3.710203005202542
512,mp-3881,BaZnF4,4.890456816783494,-5.197911964166667,-1.18693553,0.0,4.5489,25.15932208,BaZnF4,1262.81,1300.0,1294.16,100.0,0.170498,100.0,6.052220086478362
513,mp-559256,La4S3NCl3,4.690021412257328,-6.74536809909091,5.12743511,0.0,2.9165,18.006737263333335,La4S3NCl3,1193.16,1100.0,2512.86,100.0,0.408371,100.0,3.7960582515030543
514,mp-22971,SbSBr,4.312449749327714,-4.089356465833333,2.46687697,0.0,1.7767,105.15373410666666,SbSBr,1179.17,700.0,1454.33,100.0,0.378153,300.0,1.960738543669124
515,mp-4182,CrAgS2,5.029493241696318,-5.9170732625,4.18093084,0.0035696916666667633,0.7286999999999999,22.017900896891806,CrAgS2,1068.36,300.0,3562.58,1300.0,0.6219,100.0,3.705160062362749
516,mp-626534,H3NO,1.397382307497537,-5.208242629,0.32239351,0.36716581041666707,3.8407,7.266612306666666,H3NO,1256.16,1300.0,778.074,100.0,0.150431,100.0,4.080782847567239
517,mp-541236,Na5HfAs3,3.8366772957021618,-3.9761505916666664,1.84918181,0.0,0.8393999999999999,16.05735011,Na5HfAs3,1049.35,400.0,2389.43,100.0,0.494541,100.0,1.0640517217315346
518,mp-22450,Li2PbO3,6.684437017432163,-5.517568566666667,2.80536434,0.0,1.1198999999999995,30.81237459333333,Li2PbO3,1229.66,400.0,1787.92,100.0,0.390184,100.0,1.3857303007788901
519,mp-14070,RbAlO2,3.5913843595519976,-6.516673679999999,1.64583898,0.0,3.3716,24.012982326668375,RbAlO2,1262.97,1300.0,1523.67,100.0,0.232017,100.0,5.237537956030599
520,mp-6955,KGeNO,3.7380784610347604,-6.033515937500001,1.1874323,0.0,2.6817,8.63736053,KGeNO,1215.45,1000.0,724.358,100.0,0.130728,100.0,3.274302737609372
521,mp-27694,H3ClO5,1.9087334996748444,-4.906282158888889,-1.50454795,0.0,5.4925999999999995,4.975300466666666,H3ClO5,1318.4,1300.0,229.439,100.0,0.0272522,100.0,7.316949652282017
522,mp-37091,Sr(AlTe2)2,4.521575917509389,-4.183432127142857,3.56022874,0.0,1.4454000000000002,12.948366285841113,Sr(AlTe2)2,1093.66,700.0,4830.46,100.0,1.87214,100.0,0.9258402962104292
523,mp-755013,Li5TaO5,4.429785747887919,-6.8489673581818185,0.71831651,0.0,3.4293000000000005,22.80021311666667,Li5TaO5,1311.39,1300.0,1493.37,100.0,0.306439,100.0,4.190415869400071
524,mp-510076,Rb7Au5O2,5.732189043246333,-3.060429541428572,0.77686204,0.0,0.6267999999999999,10.889568843333327,Rb7Au5O2,1033.4,200.0,1477.46,1300.0,0.129557,100.0,6.495169532185732
525,mp-1634,MoSe2,5.692222801292915,-6.933359703333333,3.8297572,0.00018472666666724535,1.3010000000000002,11.7328493604818,MoSe2,1109.52,600.0,2679.04,100.0,0.544149,100.0,1.6162195850655199
526,mp-11321,Y3TaO7,6.158510118655873,-9.828894436818182,2.26579949,0.0,3.2384999999999997,23.824900806627216,Y3TaO7,1210.13,1300.0,1478.98,100.0,0.278841,100.0,3.8836468275876967
527,mp-35208,NdOF,6.585385433268296,-7.979555413333333,1.41500962,0.05430110666666721,5.2617,15.660906959999991,NdOF,1406.9,1300.0,626.832,100.0,0.110902,100.0,5.593816873056934
528,mp-8276,Sr(ZnP)2,4.453666407674057,-3.6981070039999997,3.77766337,0.0,0.8278999999999996,19.669346459975092,Sr(ZnP)2,904.174,400.0,6108.03,100.0,1.29512,100.0,0.7711256975076402
529,mp-18779,Na2CrO4,2.666880381998215,-6.572910432857142,-0.62033101,0.0,2.6713,10.251765723333335,Na2CrO4,1247.27,1000.0,730.698,100.0,0.138508,100.0,3.282796826086938
530,mp-555070,BaBe2(BO3)2,3.641640861151173,-7.88822882,1.27251551,0.0,5.3821,10.091687463333097,BaBe2(BO3)2,1228.17,1300.0,1065.72,100.0,0.184861,100.0,4.347952512140766
531,mp-3288,CsNO2,3.442763649451196,-6.0533199325,0.32511465,0.0,2.3632,8.072615379976549,CsNO2,1206.99,800.0,459.465,100.0,0.0843213,100.0,2.6460693970398403
532,mp-561305,BaZnSiO4,4.493110531875051,-6.998581681190477,1.09193041,0.010555356309525976,3.5871000000000004,10.556253966668343,BaZnSiO4,1303.93,1200.0,619.64,100.0,0.0774866,600.0,8.611003013922788
533,mp-15703,BeCN2,3.2913397139121083,-7.973001791250001,6.77906585,0.003604670624999251,3.8512999999999993,7.14851210000131,BeCN2,1212.37,1300.0,3260.65,200.0,0.889414,100.0,2.873884519772935
534,mp-15703,BeCN2,3.2913397139121083,-7.973001791250001,6.77906585,0.003604670624999251,3.8512999999999993,7.14851210000131,BeCN2,1212.37,1300.0,3260.65,200.0,0.889414,100.0,2.873884519772935
535,mp-3795,NaZnF3,3.9216464845572925,-4.43257325,-1.12786622,0.0,3.7676,11.088734673333335,NaZnF3,1259.22,1300.0,1506.53,100.0,0.358313,100.0,3.3334078155200224
536,mp-17129,Sr3(AlN2)2,4.28964994465083,-6.264751255277778,3.81797455,0.0,2.1274999999999995,19.48698347,Sr3(AlN2)2,1172.19,700.0,777.892,100.0,0.118678,100.0,2.701881919962473
537,mp-561189,Rb6Si10O23,2.876474206977127,-7.465535612051283,0.60745097,0.012998631282050255,4.016500000000001,9.549031949957339,Rb6Si10O23,1318.29,1200.0,397.944,100.0,0.0458477,100.0,7.039358827656427
538,mp-568638,Y3CuSiSe7,5.390983811800236,-6.03694494625,3.95541611,0.0,1.5105,18.23723915983544,Y3CuSiSe7,1062.34,600.0,3109.57,100.0,0.64373,100.0,1.4537589087008496
539,mp-20727,Sb2PbO6,6.6198216345237935,-6.529018067777778,4.21017737,0.0,1.9261999999999997,17.163195923325727,Sb2PbO6,1078.14,900.0,3651.6,100.0,0.706594,100.0,2.202596788446593
540,mp-705676,K4MoO8,2.440282735076903,-5.38537821,1.6952874,0.4811958688461546,0.5692999999999999,14.101515733333335,K4MoO8,1107.77,200.0,266.586,1300.0,0.0177753,200.0,10.429110406231548
541,mp-550714,PbO,7.88572866132896,-5.778854845,3.2435658,0.020525674531246985,2.3054,10.673550633333335,PbO,1110.06,900.0,1638.31,100.0,0.298727,100.0,2.477912361195905
542,mp-18778,Zr(WO4)2,4.747219103495827,-9.286978047727272,-1.37414196,0.07375601136363308,3.6052,12.334128810000003,Zr(WO4)2,1237.28,800.0,529.902,100.0,0.0457097,800.0,10.056592209697186
543,mp-569578,NbI5,4.301490583422386,-3.70069675,1.92175551,0.0,0.9677,8.830064366666667,NbI5,73.4605,100.0,8793.07,1300.0,7654.16,100.0,3.099707816790638e-06
544,mp-640889,Tm(CuTe)3,7.384697720589387,-4.446774478571428,6.07332841,0.0,0.4005000000000001,17.377326893333336,Tm(CuTe)3,757.704,200.0,6039.71,100.0,1.28536,100.0,0.3596906942084885
545,mp-20289,NaInS2,3.881389207532492,-4.1988590949999995,3.55978029,0.0,1.8237,16.00155775666667,NaInS2,1216.89,700.0,3861.07,100.0,0.807952,100.0,2.122980544289938
546,mp-775027,Li2Mn3CoO8,4.245571755605765,-7.493503157857143,2.16842586,0.030470525000001025,0.2625000000000002,13.914510863328365,Li2Mn3CoO8,1004.64,300.0,1336.31,100.0,0.256847,100.0,0.8751901112463683
547,mp-1714,FeSi2,4.958877557942405,-6.835854183333333,9.10604776,0.0,0.6966000000000001,44.952691479109326,FeSi2,814.693,400.0,4914.26,100.0,1.92471,100.0,0.3389306094754524
548,mp-570081,CuI,5.68730065552409,-3.153565885,4.00901963,0.0011168175000002556,1.6315,8.04169416289608,CuI,1197.93,700.0,1221.08,100.0,0.196282,100.0,2.678229445541148
549,mp-684816,K2NaNb(OF2)2,3.1405548239459256,-6.099493707500001,-0.07705812,0.08882139136363598,2.3005,29.52135106515549,K2NaNb(OF2)2,1215.24,800.0,637.01,100.0,0.0472835,800.0,11.274269515408259
550,mp-39770,Zr2P3H4NO12,2.9109679360756773,-7.811901354545454,0.18806936,0.0,4.0671,13.20338563666976,Zr2P3H4NO12,1245.76,1300.0,1149.94,100.0,0.230696,100.0,3.867887954627179
551,mp-677467,Rb5Te3H4NCl18,2.8143656153714365,-3.7032595296774193,0.16462353,0.0,2.6113999999999997,14.829546443439035,Rb5Te3H4NCl18,1182.05,900.0,1089.55,100.0,0.121154,100.0,4.607364087324842
552,mp-30847,TiSnPt,9.925802909312868,-6.817648663333333,6.96184015,0.0,0.7908,26.45245058401696,TiSnPt,1075.81,300.0,2614.47,1300.0,0.399481,100.0,4.292263298825979
553,mp-1479,BP,2.9526018183160376,-6.453834455,7.5307309,0.0,1.2434999999999992,9.27207114692538,BP,1005.38,600.0,8197.72,200.0,1.39574,100.0,1.7810261392422875
554,mp-675989,Tl9BiSe6,8.555398442640442,-3.43684985875,4.04783314,0.0,0.7462999999999997,141.538503272925,Tl9BiSe6,932.02,300.0,4310.09,300.0,0.587416,100.0,1.4871946562728204
555,mp-643727,HPbBrO,6.373903854143099,-4.79365764625,1.93815957,0.0,3.1006,30.912662803333337,HPbBrO,1200.25,1200.0,1829.01,200.0,0.34972,100.0,3.767116436453627
556,mp-752463,NbNO,4.942325901365797,-9.71007219,2.06556323,0.061740881666647596,0.9837,112.33475934333332,NbNO,938.155,500.0,5063.38,100.0,1.04337,100.0,0.9966166923216351
557,mp-12015,KAg2AsO4,5.02647328165964,-5.2565774725,1.45797878,0.0,0.2116,14.147285033333333,KAg2AsO4,781.108,100.0,4768.5,1300.0,0.421973,100.0,3.447381125090685