,material_id,formula_pretty,density,energy_per_atom,efermi,energy_above_hull,band_gap,e_total,formula,data.Sᵉ.p.v.value,data.Sᵉ.p.T.value,data.σᵉ.p.v.value,data.σᵉ.p.T.value,data.κₑᵉ.p.v.value,data.κₑᵉ.p.T.value,ZT
1001,mp-706608,KPH3O3F,1.994338969513915,-5.663400098333334,-1.6876639,0.009596403907407236,6.6429,5.076451026666667,KPH3O3F,1237.65,1300.0,257.918,100.0,0.00919006,500.0,27.226470432601264
1002,mp-752851,Ca2SiB2O7,3.212712947557985,-8.033337982916667,2.89556316,0.014279325069473714,5.6806,9.62434569,Ca2SiB2O7,1328.46,1300.0,422.682,100.0,0.0704048,100.0,5.297591340986916
1003,mp-752851,Ca2SiB2O7,3.212712947557985,-8.033337982916667,2.89556316,0.014279325069473714,5.6806,9.62434569,Ca2SiB2O7,1328.46,1300.0,422.682,100.0,0.0704048,100.0,5.297591340986916
1004,mp-9731,RbAuSe,5.618064738215369,-3.4903249183333336,0.84891609,0.0,1.7116000000000002,10.876141660116629,RbAuSe,1055.38,700.0,2715.09,100.0,0.582631,100.0,1.5571470099278943
1005,mp-14730,NaSiSbO5,3.7472440239417395,-6.940729783281251,1.75887354,0.024450092343753838,2.8297000000000003,9.944891033333333,NaSiSbO5,1246.24,1000.0,424.322,100.0,0.0540023,500.0,6.508567198999126
1006,mp-571011,CsI4,4.044456429472045,-2.3765756535,0.71583244,0.0,1.7836,14.860510973333334,CsI4,1185.91,700.0,606.497,100.0,0.0956663,200.0,2.972021091875494
1007,mp-763609,Li4Mn5O10,3.7268837049085985,-7.479384694210526,2.36967022,0.07006769631577736,0.6966000000000001,11.648654706666669,Li4Mn5O10,1106.1,200.0,537.699,1300.0,0.0452339,100.0,7.756444829914907
1008,mp-11016,RbCd(NO2)3,3.352331340539267,-6.179308862727272,0.12661588,0.08752488149999849,2.352,7.726519740014055,RbCd(NO2)3,1196.64,900.0,1552.42,100.0,0.23047,100.0,3.5366598291215285
1009,mp-4559,BaCO3,4.125028992514491,-7.859702646,0.86604909,0.02184473500000017,4.3635,8.607251929996362,BaCO3,1225.19,1300.0,1068.36,100.0,0.205015,100.0,3.911189632826367
1010,mp-625475,H2SO4,1.8279673348045684,-5.922752746428571,-1.86818539,0.0,6.421,3.7734080566666672,H2SO4,1321.33,1300.0,227.424,100.0,0.0260158,100.0,7.631180110531169
1011,mp-28084,Rb2PdBr6,4.078800973276039,-3.2241094177777776,-0.50427101,0.0,0.5478999999999999,8.928323386649529,Rb2PdBr6,1077.46,200.0,2429.11,1300.0,0.310366,100.0,4.84589593197206
1012,mp-756935,Li3SbO3,3.82660577658809,-5.591954437857143,2.48715345,0.009161866428572196,2.8939999999999997,16.661247623333335,Li3SbO3,1245.79,1000.0,627.538,100.0,0.105305,900.0,6.165800358300591
1013,mp-978852,SrGaSnH,5.10724208693893,-3.5207949925,4.20085945,0.0,0.4150999999999998,39.010562253332374,SrGaSnH,712.265,200.0,10561.5,300.0,2.88142,100.0,0.3719051915598098
1014,mp-28911,BaReH9,4.770496751238977,-4.502345601818181,-1.49672966,0.0,3.8349,12.333226719999999,BaReH9,1192.5,1300.0,2445.2,100.0,0.463199,100.0,3.7534752260907296
1015,mp-24018,CaZnAsHO5,4.1354810213373785,-6.168405146944445,1.84758764,0.0,2.6373999999999995,12.482973826666665,CaZnAsHO5,1215.58,1000.0,1030.58,100.0,0.21506,100.0,2.8323645617764566
1016,mp-24668,CsHF2,3.6998175513092737,-4.51150526125,-2.75681372,0.0,6.5123,17.963267473079473,CsHF2,1346.54,1300.0,641.984,100.0,0.119915,1300.0,8.736384104931734
1017,mp-10378,Cs3Sb,4.228332040651216,-2.0565271175,2.52653902,0.0,0.6126,26.345761216666332,Cs3Sb,1042.89,300.0,3014.2,100.0,0.612988,100.0,0.8913450328390933
1018,mp-12867,SrSnO3,6.1370398638362,-6.7350608649999995,4.32014679,0.011474364500000611,1.5555000000000003,21.419068846696423,SrSnO3,1210.12,600.0,1327.89,100.0,0.21157,100.0,2.4509453292087606
1019,mp-1836,TlSe,7.714674112607663,-3.44045497625,3.54869644,0.0,0.17030000000000012,27.320986988764563,TlSe,679.934,100.0,5940.72,1300.0,0.994682,100.0,1.3805697272347224
1020,mp-22255,RbInTe2,4.922262233942693,-3.4174415899999997,2.78316982,0.0,1.1111,10.802986866666666,RbInTe2,1057.26,500.0,3754.21,100.0,0.721009,100.0,1.3580578329541413
1021,mp-568400,Sc(AlC)3,3.268639916700071,-6.81072147,7.41424451,0.00040784071428490165,0.10329999999999995,58.607918936749265,Sc(AlC)3,452.264,100.0,12336.7,1300.0,26.3492,100.0,0.04788346978454456
1022,mp-10489,Cs2Ti(CuSe2)2,4.941739748283294,-4.7125449800000005,2.6260982,0.0,1.3642000000000003,9.188709936666665,Cs2Ti(CuSe2)2,1122.81,600.0,2714.69,100.0,0.657775,100.0,1.3874717712286455
1023,mp-23021,K2ReBr6,4.048743483446642,-4.061717011111111,0.35795929,0.0,0.9700000000000001,15.25216926661925,K2ReBr6,1100.85,400.0,1450.28,100.0,0.227666,100.0,1.5439739543254587
1024,mp-7444,RbSb,3.8187275159288574,-3.069893544375,2.31272586,1.0058750000041528e-05,0.5423,12.867695900000001,RbSb,907.053,300.0,3075.73,100.0,0.579969,100.0,0.7272060875217428
1025,mp-18922,Mn5O8,4.7123753506064485,-8.525311958461538,3.21105476,0.009338253557698906,0.4426000000000001,16.520822380684127,Mn5O8,954.678,200.0,2371.48,1300.0,0.249915,100.0,4.612535270535838
1026,mp-27831,Rb2ZrCl6,2.7656566642775133,-4.7564886911111115,-1.07842705,0.0,3.5620000000000003,10.258460063318731,Rb2ZrCl6,1265.2,1200.0,1186.88,100.0,0.204052,100.0,4.345013231034703
1027,mp-22849,BiI3,4.78714895533529,-2.88190495625,0.56637604,0.0,2.5349,10.570938973333332,BiI3,1247.65,900.0,784.563,100.0,0.0994502,100.0,4.5027634731975885
1028,mp-3839,GaCuTe2,5.730322789813026,-3.8489445024999998,4.43099855,0.0,0.20579999999999998,40.619359700009305,GaCuTe2,703.931,100.0,5673.57,1300.0,1.12994,100.0,1.244031053621974
1029,mp-7895,Rb2O2,3.616631251187274,-4.1972335275,1.29022195,0.0,1.7600000000000002,6.328597213333246,Rb2O2,1166.89,700.0,884.968,100.0,0.167485,100.0,2.158404015719246
1030,mp-7906,Al2HgS4,3.882167802914123,-4.5849413328571424,2.15172338,0.0,2.0244000000000004,10.617375053333335,Al2HgS4,1234.84,800.0,1406.12,100.0,0.306761,100.0,2.329819973174199
1031,mp-2251,Li3N,1.2886089547430535,-3.97260661,0.3339454,0.0,0.9840000000000001,10.693276079994908,Li3N,1061.2,400.0,1955.79,100.0,0.371498,100.0,1.18574204442425
1032,mp-541487,TlPt2Se3,9.252518493291248,-4.843146791666666,4.06078959,0.0,0.46199999999999974,21.099286186666664,TlPt2Se3,787.063,200.0,7936.4,200.0,1.54348,100.0,0.5308725685244136
1033,mp-38103,NaClO4,2.39323758486194,-4.830657426666667,-0.3147944,0.003993269166666202,5.304,5.96101976,NaClO4,1311.62,1300.0,710.663,100.0,0.137311,100.0,4.451890152286333
1034,mp-5012,Li2SiO3,2.458383181249841,-6.8974027158333335,1.22570489,0.0,5.028600000000001,11.811551493333335,Li2SiO3,1265.33,1300.0,1088.96,100.0,0.200992,100.0,4.337213190802976
1035,mp-1602,SiS2,1.6150896502851921,-5.57735336,0.24099452,0.0,3.0953,4.0154922833409055,SiS2,1155.12,1100.0,1137.94,100.0,0.17629,100.0,3.732226483655032
1036,mp-10550,SrMg2N2,3.7066330667933087,-5.152591404000001,3.51948279,0.0,1.6917,18.541896489996542,SrMg2N2,1198.9,700.0,2166.45,200.0,0.451025,100.0,2.3014032432825235
1037,mp-768906,YBrO,4.664391442778788,-7.665112838333333,0.99738086,0.003333443333334074,4.4849,16.462583640000002,YBrO,1272.28,1300.0,1504.89,100.0,0.373535,100.0,3.260685107136113
1038,mp-32884,Ag2S,6.3750554217582565,-3.484111825,1.89419027,0.0057561516666666535,1.4427999999999999,11.486981866666667,Ag2S,1125.45,600.0,4360.49,100.0,0.807322,100.0,1.824356257808483
1039,mp-16280,Ca2Sb2O7,4.995404115590682,-6.858532448181818,3.97508298,0.0,1.7433999999999998,19.465119756666663,Ca2Sb2O7,1180.34,700.0,1356.5,100.0,0.271201,100.0,2.0905666414335484
1040,mp-7569,KAsF6,3.0632532386476443,-4.90039135375,-3.15673076,0.0,4.943,6.627666856992705,KAsF6,1264.2,1300.0,630.266,100.0,0.119548,100.0,4.212919307877337
1041,mp-557387,Sr2TmNbO6,6.040032196060642,-8.2186613545,2.14065064,0.03450579912500018,2.8569999999999993,17.654672016666666,Sr2TmNbO6,1260.48,1100.0,1476.89,100.0,0.349076,100.0,2.912877191543096
1042,mp-9565,Ca(MgSb)2,3.812302627850645,-3.4804082980000004,4.20916408,0.0,0.7931000000000008,17.505046473334026,Ca(MgSb)2,835.887,400.0,6751.07,100.0,1.04607,100.0,0.9018555899247452
1043,mp-571306,Ca2Zn2CuP3,4.0004485183901854,-4.12228686125,5.22045187,0.0,0.27780000000000005,20.317867086667206,Ca2Zn2CuP3,696.983,100.0,10915.3,1300.0,1.5075,100.0,1.7587039171061756
1044,mp-20944,Sr2PbO4,6.524207429649726,-6.307388707857142,2.46052846,0.0,1.3966000000000003,15.059876453333333,Sr2PbO4,1230.12,500.0,779.256,100.0,0.183065,100.0,1.5029570826295582
1045,mp-559053,NaY(SeO3)2,3.9303542955089434,-6.632070602249999,1.10076446,0.0,4.0877,10.882530530000002,NaY(SeO3)2,1207.7,1300.0,598.274,100.0,0.106759,100.0,4.0868036192988875
1046,mp-761033,Hf3N2O3,9.031915646673344,-10.785325824375,2.75997317,0.0,2.9849,17.859168503333333,Hf3N2O3,1230.65,1100.0,1510.41,100.0,0.316094,100.0,3.135954910627527
1047,mp-543045,Tl2CO3,6.638152969322489,-6.295467344166667,1.74327222,0.0,2.9095000000000004,14.150843553996557,Tl2CO3,1283.58,1000.0,559.937,100.0,0.117217,100.0,3.148142906896326
1048,mp-11824,Ca3PN,2.599830489602434,-5.043603045999999,3.87373418,0.0,0.8055999999999996,52.810240066666665,Ca3PN,895.384,400.0,6456.52,100.0,1.21408,100.0,0.8527070437927999
1049,mp-556695,NaSrBO3,3.7057475492706105,-6.974299449166666,1.69152283,0.0,3.8575,10.785806726666669,NaSrBO3,1242.84,1300.0,773.593,200.0,0.12283,100.0,5.188445413484438
1050,mp-624,B6As,3.5524867434252454,-6.561095420714286,4.53115495,0.0,2.6454000000000004,8.076403676648807,B6As,1239.88,1000.0,3484.91,100.0,0.622895,100.0,3.440297679041704
1051,mp-23860,SrHCl,3.4364753726144737,-4.12960599,0.97004124,0.0,4.044700000000001,9.760248523333333,SrHCl,1288.6,1300.0,355.769,700.0,0.0456306,100.0,9.062462400351253
1052,mp-697135,H2S,0.9103993392461751,-3.91109767,-2.27022201,0.04597777333333353,3.5201,3.0640406499999995,H2S,1286.77,1200.0,475.028,100.0,0.0838012,100.0,4.380035263370093
1053,mp-30148,BC2N,3.4189681649775543,-8.55601173375,8.97646306,0.5420403050000004,2.1098999999999997,6.722486549999999,BC2N,1049.91,1000.0,4540.03,200.0,1.1642,100.0,1.8627619996379532
1054,mp-28967,Ba(PdS2)2,4.917148846596007,-5.242961645,3.16054397,0.0,0.7791999999999999,17.04833398,Ba(PdS2)2,1090.22,400.0,1595.03,100.0,0.263243,100.0,1.4403575377787459
1055,mp-643776,Na2ZnH4(SeO5)2,3.3074908274094765,-5.382836311052632,-0.03845694,0.0,3.0449,8.99341382,Na2ZnH4(SeO5)2,1250.21,1100.0,945.05,100.0,0.185393,100.0,3.452625617480553
1056,mp-559691,Ca2Al2SiO7,2.977142404655625,-7.740008175,2.53497082,0.02128553399305666,4.284800000000001,9.872859379999998,Ca2Al2SiO7,1303.69,1300.0,673.776,100.0,0.132558,100.0,4.319448170406137
1057,mp-18986,Ba2MgWO6,6.880619859427777,-7.764655895,2.65291087,0.0,3.2230999999999996,20.882064370000013,Ba2MgWO6,1270.33,1100.0,1292.03,100.0,0.239858,100.0,3.766808972284277
1058,mp-759095,LiSn2P4H3O16,3.4926052271290517,-6.943813171923077,1.64247596,0.041327079038449455,3.3251000000000004,9.997446826666666,LiSn2P4H3O16,1244.06,1100.0,730.616,100.0,0.109726,100.0,4.465646915989242
1059,mp-33606,Ba(PrSe2)2,6.144703212193494,-5.8327362464285715,3.21730218,0.0067630876784461336,1.6190000000000002,23.765134876666668,Ba(PrSe2)2,1110.91,700.0,3025.67,100.0,0.652934,100.0,1.715660221902058
1060,mp-772840,Sm2Ge2O7,5.961630183406707,-7.826347681363637,1.11286198,0.022230645227269363,3.6725000000000003,11.904647266666665,Sm2Ge2O7,1274.89,1300.0,663.175,100.0,0.0831263,100.0,6.483434525606924
1061,mp-15649,As2Ir,10.453602792522602,-6.534926448333334,6.44121523,0.0,0.8155000000000001,28.905888466666667,As2Ir,964.385,400.0,6281.39,100.0,1.25607,100.0,0.9301924387443744
1062,mp-561480,NaNiF3,3.9192480248811585,-5.1659703025,0.09731517,0.0,4.610799999999999,7.1788857533327155,NaNiF3,1197.13,1300.0,1606.52,100.0,0.36405,100.0,3.1621155376796986
1063,mp-22661,InAg(PS3)2,3.249349850081372,-4.7375496685,2.94608123,0.0,1.1482999999999999,10.617770076666666,InAg(PS3)2,1107.29,400.0,1986.88,200.0,0.324034,100.0,1.7542060202248178
1064,mp-5769,Li3SbO4,4.347673841111185,-5.91966927625,2.6938652,0.0,3.0560000000000005,13.7390081,Li3SbO4,1308.55,1100.0,1018.25,100.0,0.162038,100.0,4.66273019159459