,material_id,formula_pretty,density,energy_per_atom,efermi,energy_above_hull,band_gap,e_total,formula,data.Sᵉ.p.v.value,data.Sᵉ.p.T.value,data.σᵉ.p.v.value,data.σᵉ.p.T.value,data.κₑᵉ.p.v.value,data.κₑᵉ.p.T.value,ZT
890,mp-557467,Li4Ca(BO3)2,2.3119615643632274,-6.831027126538462,0.56635257,0.0,4.7254,9.340945906666668,Li4Ca(BO3)2,1327.26,1300.0,350.799,100.0,0.071298,300.0,4.911573846184806
891,mp-560151,AlPO4,2.318585190179178,-7.933225460555556,0.06857961,0.01269553111110433,5.479900000000001,4.447571963366818,AlPO4,1300.4,1300.0,708.713,100.0,0.144457,100.0,4.14816223829264
892,mp-8957,Na5TaO5,3.9094813013513363,-6.256743916363636,0.85204657,0.0,2.538,7.850151426666667,Na5TaO5,1261.0,900.0,421.783,100.0,0.0695371,100.0,3.5365035658053996
893,mp-625238,Re2H4O9,4.459147637436403,-7.2414194703333346,-1.71950041,0.026183309027741686,2.6495,11.380196643333335,Re2H4O9,1247.99,900.0,293.367,100.0,0.0503704,800.0,5.442636392290116
894,mp-16988,SrCu2SnS4,4.228700144982886,-4.830746721666666,4.57277873,0.007270762083334326,0.4032,15.348783469996524,SrCu2SnS4,870.399,200.0,2451.23,100.0,0.547431,100.0,0.452303740727889
895,mp-30301,LiClO4,2.3378078695149656,-4.932899789583334,-0.27450269,0.0,5.7447,51.688585100000005,LiClO4,1296.37,1300.0,797.25,100.0,0.151603,100.0,4.418905166070345
896,mp-754658,TeO3,5.359328553228341,-5.817351334375,2.89920568,0.02112703687499984,1.2489,9.800950653333333,TeO3,1116.32,500.0,1031.1,100.0,0.191878,100.0,1.5625351665017144
897,mp-769079,ScGaO3,4.824494599470187,-7.955223722666667,2.59128234,0.004530560708331244,3.1715,16.16484919999922,ScGaO3,1279.43,1100.0,1077.24,100.0,0.229716,100.0,3.3264146374994326
898,mp-19359,NaFeO2,4.208426655850448,-6.7247904325,2.67291759,0.0,1.9889000000000001,14.73796922664607,NaFeO2,1220.68,700.0,911.324,600.0,0.165755,100.0,3.8231083717692265
899,mp-768159,LiSnPCO7,3.0429718560903667,-7.2738512704545455,0.51341467,0.04933133488636088,2.7861,6.627617583333333,LiSnPCO7,1217.64,900.0,84.1815,100.0,0.000332914,500.0,187.45300994803821
900,mp-555292,PNF2,2.0902522539201978,-6.44789950875,-0.76872412,0.00378753125000042,5.1576,3.2762669599999996,PNF2,1210.75,1300.0,350.523,100.0,0.00746333,1300.0,61.963414272552434
901,mp-24104,LiAlSi2H2O7,2.224329698485143,-7.227418582307692,0.37626524,0.007466238867524844,4.858,4.966878750000002,LiAlSi2H2O7,1250.84,1300.0,841.915,100.0,0.148651,100.0,4.430716251674134
902,mp-10390,Ta2O5,8.43324676377032,-10.249215993571429,3.28430992,0.008550294285713633,1.2267000000000001,33.75259547635202,Ta2O5,1104.31,500.0,1060.94,100.0,0.180298,100.0,1.6743980499788746
903,mp-541040,Y2Be2GeO7,4.695864441256906,-8.24433626125,2.34685124,0.0,4.5479,13.451133453333332,Y2Be2GeO7,1307.34,1300.0,721.991,100.0,0.13425,100.0,4.595836737215342
904,mp-3312,Cs(SbSe2)2,4.7960017868232745,-4.083495780714286,2.64755886,0.0,1.1220000000000003,20.899147053333333,Cs(SbSe2)2,1016.14,500.0,2292.55,200.0,0.363324,100.0,1.7374029588708557
905,mp-571648,Rb2MnCl6,2.778416342861221,-4.307813721111111,-0.57847454,0.0,1.2037,7.2814909300186885,Rb2MnCl6,1173.18,500.0,1104.15,100.0,0.203918,100.0,1.738915987652753
906,mp-2160,Sb2Se3,5.341825109233409,-4.287896815,3.80523339,0.0,0.7564000000000002,63.52611422666667,Sb2Se3,965.628,300.0,4086.86,100.0,1.0222,100.0,0.62133001582968
907,mp-554948,NaI(OF)2,3.680282393858349,-4.5832179108333335,-7.11e-06,0.0,4.268599999999999,7.811292156666668,NaI(OF)2,1310.44,1300.0,963.918,100.0,0.118306,100.0,6.995803556391581
908,mp-36100,Ca(SmS2)2,5.069934867138812,-6.360852987857143,4.00582355,0.014135358214288019,2.0833999999999997,21.921148839999997,Ca(SmS2)2,1180.66,800.0,2675.96,100.0,0.558951,100.0,2.2245098079224452
909,mp-35327,Al(CN)3,1.2398378523820193,-8.19997815,-3.57971232,0.3149070950000006,4.862,3.127682483333333,Al(CN)3,1267.75,1300.0,538.458,100.0,0.111846,100.0,3.868731768116986
910,mp-771264,Na3ZnPCO7,3.046812848759152,-6.482683569230769,1.0549801,0.010946299358973732,3.8238999999999996,10.288066523333333,Na3ZnPCO7,1243.39,1300.0,847.394,200.0,0.128729,100.0,5.427782762540996
911,mp-24007,Rb2HBrO,3.1713566874910057,-4.108894919,-1.10310991,0.0,3.3099,7.466467066666667,Rb2HBrO,1302.63,500.0,203.792,100.0,0.0132105,1000.0,13.960750183258666
912,mp-12171,K6MgO4,2.4988692239725894,-4.136565298636364,0.81838263,0.0,1.8035999999999999,10.105806850052831,K6MgO4,1155.33,700.0,707.003,100.0,0.129088,100.0,2.1931520415248347
913,mp-675778,NaY2F7,3.7683255636258965,-6.88449741,-1.90727424,0.031428211250005944,7.0369,10.383617579008591,NaY2F7,1359.02,1300.0,139.291,100.0,0.0171867,100.0,7.484318492947347
914,mp-672186,TeS7Cl2,2.1530423508980645,-4.20425717075,0.15463977,0.0,2.2614,4.425963890000001,TeS7Cl2,1194.76,800.0,473.319,100.0,0.0835012,300.0,3.236551793074947
915,mp-77,S,1.469655559945604,-4.1354432690625,-0.54393933,0.0010065978125002317,2.7125,2.953743946729316,S,1101.18,900.0,866.403,100.0,0.152926,900.0,4.35098508489579
916,mp-77,S,1.469655559945604,-4.1354432690625,-0.54393933,0.0010065978125002317,2.7125,2.953743946729316,S,1101.18,900.0,866.403,100.0,0.152926,900.0,4.35098508489579
917,mp-29027,TaI2O,6.29553903654191,-6.64738526625,3.12106408,0.0,0.8866,19.39824626666667,TaI2O,1077.16,300.0,1602.61,100.0,0.369965,100.0,0.8376766177103311
918,mp-560311,Na3FeF6,3.0308103562031667,-5.2900645985,-1.8206719,0.0,3.1439,10.255323079999998,Na3FeF6,1282.31,1300.0,153.803,100.0,0.00956003,600.0,17.636010579394153
919,mp-4405,Rb3AuO,4.396741042200422,-3.048704132,1.02210109,0.0,0.19789999999999996,22.438095603333334,Rb3AuO,994.142,100.0,18530.8,1300.0,0.360801,100.0,25.38009741266217
920,mp-6526,NaGeSbO5,4.78923261799953,-6.4326555700000005,2.64144732,0.0,1.9847000000000001,10.19698705,NaGeSbO5,1178.67,800.0,1084.99,100.0,0.218313,100.0,2.3014913276302233
921,mp-22935,CsBrF,3.9465023172086715,-3.439316476666667,-0.87551023,0.1252752801666679,2.5061999999999998,10.883300380000001,CsBrF,1209.83,800.0,832.012,100.0,0.127106,100.0,3.193676940265989
922,mp-558219,SrLi(BS2)3,2.229089315041482,-5.583403942272728,1.29413415,0.0,2.7310999999999996,7.552459396666667,SrLi(BS2)3,1185.57,1100.0,1458.5,100.0,0.278176,900.0,5.158687474159004
923,mp-9063,RbSe,3.3478429775973573,-3.402452095833333,0.34982075,0.0,0.9245,6.2663838232386935,RbSe,1099.64,400.0,1244.63,100.0,0.238481,100.0,1.2621690737157665
924,mp-541914,MnHgC4(SN)4,2.698200742158603,-6.994104771428572,0.14950722,0.1578269054081627,1.658,5.869298166666667,MnHgC4(SN)4,1070.73,600.0,759.721,100.0,0.115522,500.0,3.0158474191981473
925,mp-756361,ZrSeO,6.060150344336365,-8.357037624166667,4.23612083,0.03540916583333242,1.9570999999999996,19.436570886666665,ZrSeO,1109.59,800.0,2701.37,100.0,0.509552,100.0,2.1757018218136035
926,mp-8759,Cs2ZrO3,4.9616170311605305,-6.930535853333333,1.21864828,0.0,3.8566000000000003,22.348327879999776,Cs2ZrO3,1289.08,1300.0,1181.63,100.0,0.284895,100.0,3.446088499558841
927,mp-6960,Rb2SiAs2,3.4465732688969517,-3.7810945080000002,2.18882499,0.0,0.9554999999999998,10.749456810073086,Rb2SiAs2,939.142,400.0,2901.06,100.0,0.638282,100.0,0.801745694170769
928,mp-23494,Ti(Bi3O5)4,8.690230776076797,-6.4638717024242425,4.18476111,0.007387453181801895,2.3129999999999997,40.741107906707555,Ti(Bi3O5)4,1169.71,900.0,2257.2,100.0,0.424628,100.0,2.666792649331942
929,mp-4584,Tl3BO3,7.461706950624701,-5.735509955714286,3.08625003,0.0,1.303,13.171100686666668,Tl3BO3,1064.71,600.0,2128.4,900.0,0.274875,100.0,4.681439357416407
930,mp-22356,In2HgS4,5.489327021743368,-3.9284885835714287,3.4541513,0.0,0.34670000000000023,20.625507263333134,In2HgS4,1034.2,200.0,4570.91,1300.0,0.594478,100.0,4.386061105191358
931,mp-34418,AgPF6,2.980259016074546,-5.0024978775,-2.31968061,0.0,3.2361,4.3637792466732535,AgPF6,1292.55,1100.0,443.066,100.0,0.0602835,100.0,5.320920460302096
932,mp-561664,TeF4,3.963945967336222,-4.6270565024999994,-0.38120436,0.0,4.0186,10.992148700000001,TeF4,1082.84,1300.0,2930.29,100.0,0.666148,100.0,2.5789234986241967
933,mp-5304,LaAlO3,6.4153752946657665,-8.420498052000001,7.93942141,0.00678850400000286,3.4924,42.83784210666666,LaAlO3,1316.21,1300.0,1828.59,100.0,0.338593,100.0,4.677984101776497
934,mp-752733,TiGa2O5,5.2736630804248215,-7.490755449375,2.6352263,0.07691460656249927,2.0158,84.88024693672679,TiGa2O5,1239.75,800.0,1950.46,100.0,0.449962,100.0,2.2207935579032227
935,mp-761686,Na2BiO3,5.850547224519746,-5.2939427175,3.17590231,0.0,1.0073999999999996,19.444487693333333,Na2BiO3,1224.34,400.0,476.992,100.0,0.110151,100.0,1.2982451938043502
936,mp-752484,YbB4O7,5.553108663359154,-8.298008559583332,2.96728127,0.0,6.996500000000001,12.812678763333333,YbB4O7,1275.95,1300.0,673.396,100.0,0.120993,100.0,4.530515327539155
937,mp-550759,RbClO4,2.6113493800278436,-4.839332286666667,-1.50280051,0.025213406666666494,5.2141,6.362888676666667,RbClO4,1301.68,1300.0,671.762,100.0,0.0935517,100.0,6.083341790673332
938,mp-16804,LiCaPO4,2.7644400556000543,-7.264781861904761,1.42522832,0.0030693378174575514,5.513,10.039922073321696,LiCaPO4,1263.28,1300.0,437.61,100.0,0.0408039,800.0,12.551228330614906
939,mp-625171,H7ClO3,1.3867274543393509,-4.8464142581818175,-1.50849116,0.05108542500000013,4.2299,13.79133017,H7ClO3,1278.08,1300.0,365.446,100.0,0.0337082,1200.0,15.348142458337824
940,mp-652046,Re3S4Br,6.733268965645657,-7.8258878928125,2.62521299,0.0,1.3634000000000004,7.630416636666666,Re3S4Br,1205.43,600.0,739.909,100.0,0.128625,100.0,2.2289773014180745
941,mp-761390,TaFeO4,7.256570696868822,-9.337830191666667,1.98714392,0.018508744166666702,0.0,44.35158745333333,TaFeO4,1076.15,800.0,1338.47,200.0,0.236039,100.0,2.407919290239795
942,mp-554517,NaMnF4,3.1095596601743445,-5.931849761666666,-1.38085034,0.0,1.7974,6.015941073333334,NaMnF4,1090.35,800.0,738.789,800.0,0.142657,100.0,3.4888866198754327
943,mp-20351,InP,4.5816214404051765,-4.288286255,4.68757835,0.0,0.4546000000000001,17.254163756625605,InP,925.748,300.0,5579.97,400.0,0.902443,100.0,1.413078799289347
944,mp-754578,TmGaO3,8.581392196401769,-7.6298202355,2.58820763,0.05087532610000167,3.6067,21.569513459999996,TmGaO3,1324.49,1300.0,1627.54,100.0,0.312487,100.0,4.568431191558615
945,mp-13546,Y2Ge2O7,4.8564351008411455,-8.207438182045454,1.11172847,0.0,3.9791,11.751230906666665,Y2Ge2O7,1325.5,1300.0,515.392,100.0,0.0648981,400.0,8.37175297811184
946,mp-570084,Hg3AsSe4I,6.448460575018326,-2.8018890177777775,0.98184084,0.0,1.7807,17.238176460000002,Hg3AsSe4I,1121.98,500.0,2584.46,100.0,0.401362,100.0,1.8913877805873411
947,mp-554543,SiO2,1.7788437836677926,-8.361194331666667,-1.51178712,0.013063538333332403,5.4402,3.4723357233333325,SiO2,1259.75,1300.0,1149.21,100.0,0.343092,100.0,2.6578321055658907
948,mp-15988,Li2CuSb,5.207161258825238,-3.4843026875,6.07379469,0.0,0.4535,29.770100684325172,Li2CuSb,842.508,200.0,15576.7,200.0,2.45988,100.0,0.7491320030033923
949,mp-540696,Ca3(SiAs2)2,3.6279899282703014,-4.766316833611111,3.99446805,0.0,0.6729000000000003,17.60917693,Ca3(SiAs2)2,880.527,400.0,4448.71,100.0,0.696827,100.0,0.9899755684079347
950,mp-559118,CsTa(PO4)2,3.971384586297138,-8.219822081666665,-0.35863478,0.0,3.3857000000000004,9.267498132141634,CsTa(PO4)2,1278.52,1200.0,599.97,100.0,0.0908492,100.0,5.037676333138149
951,mp-971712,ZnCdS2,4.353168346132271,-3.569460695,1.48600633,0.01790682892857154,1.3685999999999998,9.869845553333333,ZnCdS2,1077.74,700.0,3470.48,100.0,0.565449,100.0,2.1386778132010043
952,mp-23048,CsMnBr3,4.024607788194977,-4.563924619,1.56396457,0.0,0.0,12.470928903324266,CsMnBr3,1073.81,500.0,1110.53,200.0,0.186789,100.0,1.8281112383370652
953,mp-9764,Rb2NbAgSe4,4.141827493418777,-4.777226801249999,0.49661676,0.0,1.7584,8.51225234666664,Rb2NbAgSe4,1099.58,700.0,1941.75,100.0,0.378889,100.0,1.858900890913724
954,mp-756317,Al2HgO4,6.737775668397361,-6.484171331428571,4.03485016,0.086619771785716,1.3460999999999999,13.130101246666689,Al2HgO4,1168.82,600.0,3054.58,100.0,0.548127,100.0,2.030178898394565
955,mp-10233,Ca2BN2F,2.687949105707024,-6.959736347083333,2.47755298,0.0,2.9265,10.998139093333334,Ca2BN2F,1107.87,1200.0,2022.69,200.0,0.421617,100.0,2.9441424726804906
956,mp-23484,CsAuCl3,4.429148845429488,-3.35698054,0.25683706,0.0,0.8112,20.100297837000387,CsAuCl3,959.655,400.0,7605.98,200.0,1.55803,100.0,1.049026379574385
957,mp-1217,KSi,1.7429918658853185,-3.29748823375,1.74995827,0.0,1.2223000000000002,10.406348109999998,KSi,1085.04,500.0,2402.57,100.0,0.333617,100.0,1.9783182617783055
958,mp-568269,TmNiBi,10.925302282172048,-5.368310213333333,6.11758858,0.0,0.1490999999999998,30.36912572,TmNiBi,686.838,100.0,22706.0,1300.0,6.77163,100.0,0.7909081437385285
959,mp-6999,ScPS4,2.2180311746364993,-5.979867936666667,1.7180751,0.0,1.9419999999999997,7.636792276666669,ScPS4,1161.38,700.0,1240.11,100.0,0.237066,100.0,2.1167076432404697
960,mp-9486,K2AlF5,2.4309329461890123,-5.45656112125,-2.45858762,0.0,6.3239,6.076721549999999,K2AlF5,1330.72,1300.0,471.985,100.0,0.0575472,700.0,10.166592289361024
961,mp-14500,Sr(As3Pt2)2,9.770469414336448,-5.574487158636364,5.33017338,0.0,0.12870000000000026,32.09566739999553,Sr(As3Pt2)2,581.588,100.0,13341.3,1300.0,18.441,100.0,0.12235298262695156
962,mp-2131,SrN6,2.6156489203570628,-7.885104792142856,0.37559521,0.0,3.6681,6.769826006955199,SrN6,1321.84,1100.0,724.506,100.0,0.109473,100.0,5.010889710775099
963,mp-568722,CdBr2,4.644457120818816,-2.6353902,-1.01705545,0.0020692266666690884,2.8551,7.459387643741427,CdBr2,1313.23,1000.0,1053.49,100.0,0.189828,100.0,3.8283508111128404
964,mp-556340,CaTaNO2,7.056899503339866,-9.1718990845,3.97552073,0.010512168300005342,1.5507999999999997,87.92203610333333,CaTaNO2,1072.53,600.0,2958.43,100.0,0.559311,100.0,1.6225405783523354
965,mp-707339,AsH6NO4,1.986313776069108,-5.540343515625,-1.81735606,0.08250651949403487,3.7763999999999998,6.689268786666666,AsH6NO4,1260.24,1200.0,189.755,100.0,0.0159546,400.0,10.703886479586025
966,mp-4117,Li2Si2O5,2.361940262130261,-7.394610862777777,0.73310869,0.0,5.154,5.132930533333325,Li2Si2O5,1306.35,1300.0,586.715,100.0,0.124821,100.0,4.010778124136111
967,mp-27484,Tl2O,9.413254201538034,-4.044394161666666,3.98236093,0.0,0.5717000000000003,32.42777573061375,Tl2O,1015.65,300.0,5711.51,100.0,0.900837,100.0,1.09003795734929
968,mp-697253,SiH12C2(NF)6,1.6389611975846674,-5.947416282222222,-1.16257277,0.0,5.1979,4.505720956666667,SiH12C2(NF)6,1232.14,1300.0,1022.03,100.0,0.156902,100.0,4.944533027687946
969,mp-567744,SrBr2,3.75593299772142,-4.1595808566666665,-0.67778497,0.0,4.4697000000000005,6.871007773333332,SrBr2,1278.97,1300.0,1283.32,100.0,0.301673,100.0,3.4792788736449523
970,mp-18244,K6MnS4,2.103536269912043,-4.166139115454545,1.22392296,0.0,1.2969,7.8280433532807505,K6MnS4,1153.81,500.0,482.488,100.0,0.0846157,400.0,2.530363459689146
971,mp-2895,Mg2SiO4,3.1164402702643605,-7.281425999999999,3.11609556,0.0,4.6395,6.840693216666666,Mg2SiO4,1226.94,1300.0,1122.47,100.0,0.236562,100.0,3.57146513004644
972,mp-20554,InAgSe2,5.443594904057396,-3.799721375,2.32018131,0.0,0.0,13.658163323333332,InAgSe2,364.637,100.0,5966.14,1300.0,198.427,100.0,0.0019988681485223823
973,mp-23046,SrIF,4.5094351847167795,-4.833201498333334,1.42381739,0.0,4.3096000000000005,7.7326207033333345,SrIF,1292.31,1300.0,2430.42,100.0,0.391986,100.0,5.177429433806515
974,mp-23046,SrIF,4.5094351847167795,-4.833201498333334,1.42381739,0.0,4.3096000000000005,7.7326207033333345,SrIF,1292.31,1300.0,2430.42,100.0,0.391986,100.0,5.177429433806515
975,mp-8346,Lu2Ge2O7,7.176704156270953,-7.902009531136363,1.07838217,0.0,3.6704999999999997,11.622113829999998,Lu2Ge2O7,1323.48,1200.0,561.536,100.0,0.0573322,400.0,9.7216824031412
976,mp-753345,Ba2CaI6,3.960282299459835,-3.6016262066666664,0.53046763,0.062272404999999864,3.4758,8.403060233333337,Ba2CaI6,1225.31,1300.0,2274.97,100.0,0.476224,100.0,3.5861326965772578
977,mp-19422,Na3VS3O,2.197873704049652,-5.23347576125,0.71937093,0.11153390593749979,1.8185,9.276151613333333,Na3VS3O,1171.09,700.0,834.939,100.0,0.165967,100.0,2.0698306009708416
978,mp-10694,ScF3,2.5118235797810775,-7.3151579725,-3.69540314,0.0,6.1502,8.383185603333335,ScF3,1348.04,1300.0,705.426,100.0,0.108086,100.0,5.930039415708425
979,mp-23432,BaClF,4.354846267833492,-5.495748941666666,-0.3302973,0.0,5.6113,9.520024413333331,BaClF,1294.26,1300.0,928.585,100.0,0.210105,100.0,3.701675453004798
980,mp-29055,KSb2,4.229756375907083,-3.5501436316666664,3.85547746,0.0,0.21530000000000005,22.732374766712294,KSb2,882.916,100.0,8396.95,1300.0,0.713524,100.0,4.586926277636127
981,mp-18718,Ca(NiO2)4,4.232075302645598,-6.240433672692307,2.8820711,0.007955324743588399,0.0,10.673668393521753,Ca(NiO2)4,956.778,200.0,3474.89,1300.0,0.318936,100.0,5.3193504975817225
982,mp-2908,Al2ZnO4,4.453848933946698,-7.098606812857143,4.08233728,0.0,3.8459999999999996,9.281930786666608,Al2ZnO4,1280.2,1300.0,1810.25,100.0,0.287822,100.0,5.153950219944965
983,mp-2715,CoAs2,7.35831544375982,-5.801308016666667,6.28072553,0.0,0.1722999999999999,47.588969966666674,CoAs2,470.06,100.0,20985.1,1300.0,44.1344,100.0,0.05253036435508763
984,mp-27457,Ba(PO3)2,3.6877169842415465,-7.695072711111111,0.96534896,0.0011850358333331812,5.2784,8.774318436666666,Ba(PO3)2,1223.71,1300.0,459.363,100.0,0.0924513,100.0,3.7202318925719178
985,mp-553281,Ba2LaNbO6,6.0057287427805,-8.244283973,2.70505773,0.0,3.0639,58.56254902299545,Ba2LaNbO6,1309.5,1100.0,1331.83,100.0,0.24095,100.0,4.107286198042124
986,mp-181,KGa3,4.087239819342063,-2.7265304725,2.25904213,0.0,0.14789999999999992,64.3610482723206,KGa3,846.016,100.0,27511.1,1300.0,2.43585,100.0,4.041890764033507
987,mp-557373,Cu2WS4,4.6138431051316555,-6.128940487142857,2.55708576,0.006088470952382075,1.3590999999999998,6.349045660000186,Cu2WS4,1130.68,600.0,2235.96,100.0,0.35652,100.0,2.138101336052885
988,mp-757826,CsCa(NO2)3,2.930238905705469,-6.651144211818181,0.17262798,0.08840654933333081,2.6181,5.5029240033365845,CsCa(NO2)3,1258.32,900.0,487.078,100.0,0.100226,100.0,2.8214460170646394
989,mp-6402,Na2ZnGeO4,3.7102713852034173,-5.612706376875,0.07881336,0.0,2.6874000000000002,6.63931879,Na2ZnGeO4,1288.46,900.0,539.935,100.0,0.0828501,100.0,3.9669959307819407
990,mp-22473,NaInSe2,4.9260888025684775,-3.7953336425,3.04187161,0.0,1.0191999999999997,19.128423969999215,NaInSe2,1096.65,400.0,5105.37,100.0,1.08199,100.0,1.1349325627990694
991,mp-17685,Li3GaGeO5,3.6294360902282436,-6.1636455875000005,0.17701393,0.0,3.4932999999999996,6.887245973333333,Li3GaGeO5,1301.35,1100.0,255.788,100.0,0.0360197,100.0,5.21135196082254
992,mp-5072,Rb2HgO2,5.169951548202897,-3.73693088,-0.02172225,0.0,2.0300000000000002,7.4076380900327665,Rb2HgO2,1232.12,700.0,809.513,100.0,0.164142,100.0,2.24611183275364
993,mp-5251,Ca4CN4,2.634574818092547,-6.632505455833334,3.0561701,0.0,1.6429,17.159949136666665,Ca4CN4,1195.03,700.0,823.63,100.0,0.120448,100.0,2.929620962811172
994,mp-29596,Ca3AlN3,3.0164647245229,-6.132334513928571,3.90276448,0.0,2.4565,19.579333719999997,Ca3AlN3,1246.67,900.0,714.901,100.0,0.134994,100.0,3.017907235518539
995,mp-8187,K2ZnO2,3.3048101728112935,-4.261124989,0.61507319,0.0,1.9785000000000001,16.3818353999048,K2ZnO2,1220.33,700.0,716.732,100.0,0.118203,100.0,2.7089695679259784
996,mp-10967,CdCu2GeSe4,5.453356724399745,-4.0414925175,3.04814319,0.0,0.0,21.99561448333333,CdCu2GeSe4,223.17,500.0,10028.3,1300.0,908.914,100.0,0.0003480234418310763
997,mp-28022,Na6CdCl8,2.398031599042522,-3.571860203333333,-0.81274793,0.0,4.1311,6.2988519499999995,Na6CdCl8,1292.54,1300.0,856.557,100.0,0.119246,100.0,6.000265078893804
998,mp-8387,Tl6TeO6,7.925822103434595,-4.721647888461538,2.99907595,0.0,1.5632999999999995,18.881709806666667,Tl6TeO6,1135.37,600.0,2848.36,100.0,0.571272,100.0,1.7139395540732418
999,mp-5029,Ho2Cu2O5,7.46105529317365,-7.292388335277778,3.24140793,0.04567325236111319,0.15629999999999988,14.618592226666665,Ho2Cu2O5,949.836,100.0,1874.4,1300.0,0.137107,100.0,6.166942560824255
1000,mp-984107,K3IO5,3.2339040491584647,-4.804566684444445,0.99495435,0.0,1.4979999999999998,12.73300907,K3IO5,1107.13,400.0,653.814,100.0,0.100194,100.0,1.5997043820606756