material_id,formula_pretty,density,energy_per_atom,efermi,energy_above_hull,band_gap,e_total,formula,data.Sᵉ.p.v.value,data.Sᵉ.p.T.value,data.σᵉ.p.v.value,data.σᵉ.p.T.value,data.κₑᵉ.p.v.value,data.κₑᵉ.p.T.value,ZT
mp-643776,Na2ZnH4(SeO5)2,3.307490827,-5.382836311,-0.03845694,0,3.0449,8.99341382,Na2ZnH4(SeO5)2,1250.21,1100,945.05,100,0.185393,100,0.070218133
mp-559691,Ca2Al2SiO7,2.977142405,-7.740008175,2.53497082,0.021285534,4.2848,9.87285938,Ca2Al2SiO7,1303.69,1300,673.776,100,0.132558,100,0.087847227
mp-18986,Ba2MgWO6,6.880619859,-7.764655895,2.65291087,0,3.2231,20.88206437,Ba2MgWO6,1270.33,1100,1292.03,100,0.239858,100,0.07660787
mp-759095,LiSn2P4H3O16,3.492605227,-6.943813172,1.64247596,0.041327079,3.3251,9.997446827,LiSn2P4H3O16,1244.06,1100,730.616,100,0.109726,100,0.09082056
mp-33606,Ba(PrSe2)2,6.144703212,-5.832736246,3.21730218,0.006763088,1.619,23.76513488,Ba(PrSe2)2,1110.91,700,3025.67,100,0.652934,100,0.034892419
mp-772840,Sm2Ge2O7,5.961630183,-7.826347681,1.11286198,0.022230645,3.6725,11.90464727,Sm2Ge2O7,1274.89,1300,663.175,100,0.0831263,100,0.131857525
mp-15649,As2Ir,10.45360279,-6.534926448,6.44121523,0,0.8155,28.90588847,As2Ir,964.385,400,6281.39,100,1.25607,100,0.018917886
mp-561480,NaNiF3,3.919248025,-5.165970303,0.09731517,0,4.6108,7.178885753,NaNiF3,1197.13,1300,1606.52,100,0.36405,100,0.064309854
mp-22661,InAg(PS3)2,3.24934985,-4.737549669,2.94608123,0,1.1483,10.61777008,InAg(PS3)2,1107.29,400,1986.88,200,0.324034,100,0.035676348
mp-5769,Li3SbO4,4.347673841,-5.919669276,2.6938652,0,3.056,13.7390081,Li3SbO4,1308.55,1100,1018.25,100,0.162038,100,0.094828761