material_id,formula_pretty,density,energy_per_atom,efermi,energy_above_hull,band_gap,e_total,formula,data.Sᵉ.p.v.value,data.Sᵉ.p.T.value,data.σᵉ.p.v.value,data.σᵉ.p.T.value,data.κₑᵉ.p.v.value,data.κₑᵉ.p.T.value,ZT
mp-648,Na2S,1.826998412,-3.491886877,0.35970853,0,2.4399,7.035895999,Na2S,1303.64,900,1093.4,100,0.187221,100,0.074013525
mp-9890,TaAgO3,8.9456744,-8.316438579,2.44996202,0.022071616,1.6615,1501.073704,TaAgO3,1287.69,700,1388.11,100,0.260928,100,0.053820396
mp-555678,Na4Ti5O12,3.601728626,-8.070145162,4.52719058,0,2.4781,129.1307758,Na4Ti5O12,1241.41,900,1004.59,100,0.1845,100,0.062574038
mp-556878,BiPPbO5,6.876884142,-6.945023598,3.19168437,0,3.3519,21.36734448,BiPPbO5,1237.26,1200,1048.08,100,0.204441,100,0.074482622
mp-1029,BaF2,4.694963403,-6.07795231,-1.97931744,0,6.6029,7.119468337,BaF2,1410.64,1300,650.992,100,0.119216,100,0.110495169
mp-5213,CdSnP2,4.634438611,-4.035028156,3.73822178,0,0.2695,25.65961903,CdSnP2,749.34,200,5500.78,100,1.85461,100,0.004516147
mp-1943,GaSe,4.408076837,-4.089019229,1.32283105,0.000160866,1.2387,8.60860486,GaSe,1031,600,3887.02,500,0.482481,100,0.069664845
mp-558753,BiB2O4F,5.988139839,-7.487472533,2.95894464,0,4.1919,14.45326866,BiB2O4F,1243.1,1300,701.661,100,0.13891,100,0.079373541
mp-754637,NaCuP2O7,2.543257411,-6.84310485,-0.47703401,0.015068962,0.9349,7.11189898,NaCuP2O7,1118.79,200,805.543,1300,0.0522368,100,0.20936681
mp-541844,Ge5Ir4,12.50157344,-6.847679128,7.89354906,0,0.1504,81.74922596,Ge5Ir4,702.951,100,16311.7,1300,11.8574,100,0.006912413
mp-17008,CaTeO3,3.958689926,-6.396704963,2.01443514,0.012924073,3.2993,10.17090484,CaTeO3,1177.9,1200,442.089,100,0.0764794,100,0.076118225
mp-160,B,2.476400293,-6.679391771,6.15041714,0,1.4334,9.520076497,B,882.784,700,9054.13,100,1.63545,100,0.026323244
mp-642795,PHSF2,1.863525908,-4.983301796,-0.55893045,0,4.5687,3.13784967,PHSF2,1282.52,1300,398.234,100,0.0689385,100,0.096621682
mp-644203,CsCaH3,2.961551996,-3.09975782,-0.27244639,0.012167913,3.1408,9.460530157,CsCaH3,1232.05,1200,2393.36,100,0.488109,100,0.070640612
mp-6987,Sr(GaTe2)2,5.106504754,-3.890391671,3.14849283,0,0.4519,14.21311212,Sr(GaTe2)2,886.914,200,4705.76,100,1.07067,100,0.009375095
mp-34508,Sr(SmS2)2,5.344221684,-6.316051257,3.78573477,0.012388573,2.1281,22.01658151,Sr(SmS2)2,1195.34,800,2670.54,100,0.498088,100,0.05193432
mp-13743,K3GaO3,2.986213378,-4.925301336,0.11546995,0,2.6237,9.65114109,K3GaO3,1317.21,900,235.196,100,0.0353672,100,0.086042003
mp-571281,Ge3N4,5.603621659,-6.929319297,5.95712245,0.063470816,1.6238,12.21050948,Ge3N4,1273.56,600,1771.21,100,0.248345,100,0.062736745
mp-7404,Na3SbO4,4.146619267,-5.491761628,2.42203936,0,2.1351,11.99356258,Na3SbO4,1292.25,700,513.934,100,0.095889,500,0.078877572
mp-1367,Mg2Si,1.975370396,-3.004018117,3.40203031,0,0.218,23.00334386,Mg2Si,836.353,100,18418,1300,1.58237,100,0.082791064
mp-11660,Hf3N4,12.97488887,-10.83214447,6.82972607,0.069183676,1.0259,40.5552672,Hf3N4,1037.43,500,3201.89,400,0.503978,100,0.046354401
mp-861906,BaNa2Mg(PO4)2,3.749538114,-7.004074208,2.0449373,0,4.7985,10.73907632,BaNa2Mg(PO4)2,1291.99,1300,767.797,100,0.174678,100,0.074609873
mp-27272,Ca3PI3,3.668227756,-3.969942779,2.64192827,0,2.4503,10.01282378,Ca3PI3,1203.97,800,589.188,100,0.0646977,200,0.098439093
mp-9490,KAg2SbS4,3.921085921,-4.060695402,2.1818204,0.005941896,0.5696,11.12177487,KAg2SbS4,995.454,300,3308,100,0.742089,100,0.014972711
mp-680111,CdI2,5.061638983,-2.160944967,1.03202757,0.001801675,2.3668,11.05686268,CdI2,1255.23,900,2501.64,100,0.472214,100,0.062244903
mp-778819,LiMnF3,3.10104895,-6.333152574,-0.1786243,0.075295046,2.9983,16.06179042,LiMnF3,1252.37,1200,708.921,100,0.140156,100,0.075293595
mp-27178,HgPS3,4.24149437,-4.112753571,1.60936148,0,1.7549,11.68860909,HgPS3,1166.3,700,2341.53,100,0.70828,100,0.027436982
mp-29110,Al2(FeSi)3,5.163780949,-6.601094414,9.19456907,0,0,52.02192455,Al2(FeSi)3,743.919,100,9397.52,1300,1.23119,100,0.04295456
mp-7233,La2SeO2,6.173819004,-8.144214178,5.73353796,0,2.4067,16.75892104,La2SeO2,1131.17,900,2328.94,200,0.476276,100,0.050899691
mp-644494,Rb2H4Pd,3.084692691,-3.332752727,-1.4904801,0,2.9313,6.185415143,Rb2H4Pd,1242.99,900,238.401,100,0.0278305,100,0.098694637
mp-23267,BeCl2,1.658328703,-4.316295795,-2.00823734,0,6.061,3.096350106,BeCl2,1293.04,1300,676.702,100,0.101952,100,0.112848405
mp-19034,Mg3V2O8,3.354741762,-7.571671167,1.61575135,0,3.3068,9.653072323,Mg3V2O8,1258.66,1200,811.801,100,0.142997,100,0.085358365
mp-22856,Bi2S3,6.478231083,-4.68184903,4.14431336,0,1.3618,63.63719022,Bi2S3,1095.41,600,2343.24,100,0.326638,100,0.046684423
mp-8232,BaZrF6,4.514124229,-6.87248139,-2.05106418,0,5.9273,11.82214132,BaZrF6,1340.2,1300,981.868,100,0.190116,100,0.094328616
mp-27828,Cs2TiCl6,2.963362056,-4.552943218,-0.71263014,0,2.2291,8.6538493,Cs2TiCl6,1235.7,800,897.489,100,0.151524,100,0.061312968
mp-759069,B(HO)3,1.502911705,-6.381443279,-2.70641352,0.00255615,6.0809,2.807683157,B(HO)3,1316.82,1300,248.462,100,0.0275643,100,0.158940887
mp-23023,LaBrO,5.900493871,-7.252163562,4.08470138,0,3.7256,14.0860314,LaBrO,1261.98,1300,2118.48,100,0.47038,100,0.072937397
mp-768907,Sr3TeO6,5.179925351,-6.517277445,2.4561447,0.022140138,3.0594,15.63774241,Sr3TeO6,1296.16,1100,889.698,100,0.173932,100,0.075735979
mp-18168,TlZnPO4,5.448736771,-6.344897569,1.38822829,0,3.8996,13.90225365,TlZnPO4,1255.84,1300,614.965,100,0.0892461,300,0.125244088
mp-865101,NaLi2Bi,4.737795744,-2.742992588,2.95059355,0,0.3251,25.37045973,NaLi2Bi,872.912,200,9274.32,1300,1.47401,100,0.052002125
mp-30284,HgAsO3,6.488267457,-5.326915277,0.35074594,0,1.2351,13.69774979,HgAsO3,1045.29,500,3504.28,100,0.748795,100,0.024265321
mp-761036,CdSeO4,4.646706061,-5.351390517,-0.08181014,0,1.6838,10.31602154,CdSeO4,1140.32,700,1393.15,100,0.28117,100,0.039310035
mp-675022,CsPbCl3,3.936450729,-3.908291924,0.59343321,0.011752995,2.6799,38.41741134,CsPbCl3,911.214,1100,8054.61,100,2.10137,100,0.028048177
mp-28413,Na2(GaSb)3,4.717965588,-3.353283804,3.58945093,0,0.683,25.52395678,Na2(GaSb)3,552.295,100,5324.88,100,2.85581,100,0.001156705
mp-4979,AlCuS2,3.435993537,-5.089870561,5.01165731,0,1.6918,8.676691023,AlCuS2,1161.39,700,1978.44,100,0.580179,100,0.028063258
mp-2667,CsAu,6.514133851,-2.39192245,1.12257061,0,1.0233,10.20522548,CsAu,778.017,600,7974.69,100,2.13566,100,0.012258248
mp-23326,Ca4Cl6O,2.58124469,-5.083842272,1.12461196,0,5.2239,11.28487406,Ca4Cl6O,1266.48,1300,806.299,100,0.0833139,700,0.220990274
mp-559377,IOF3,3.7270444,-4.089713606,-1.0899979,0,3.637,6.65671048,IOF3,1268.65,1300,980.441,100,0.233087,100,0.068842535
mp-7610,Li2CaSiO4,2.862343996,-6.91044499,2.02386337,0.004956161,5.1897,10.3346372,Li2CaSiO4,1306.9,1300,898.698,100,0.177599,100,0.087887634
mp-554791,RuO4,2.920827691,-6.995222994,-3.06285658,0,2.2052,2.772858653,RuO4,1291.96,800,391.751,100,0.0430232,700,0.164855735
mp-16031,Sn3N4,7.164964738,-6.469008936,7.87746255,0.013090387,0.2344,18.37808464,Sn3N4,1047.8,100,7799.09,1300,0.584041,100,0.149082676
mp-971787,VBr2,4.065954415,-5.328173077,2.33316968,0,0.9317,5.05853435,VBr2,1195.5,400,546.547,100,0.0866126,100,0.03668389
mp-551135,BaCuB2O5,4.066481627,-7.492341373,1.89780508,0.027751538,0.5047,9.255947967,BaCuB2O5,1056.19,200,935.217,1300,0.109217,100,0.103610739
mp-567655,Sr2C(NCl)2,3.124749364,-6.570548317,1.08433203,0,4.202,7.7150891,Sr2C(NCl)2,1262.57,1300,1111.88,100,0.18309,100,0.098440548
mp-541190,Cs2LiVO4,4.020440715,-6.440591502,0.11328535,0,3.9955,8.9248207,Cs2LiVO4,1294.93,1300,457.461,100,0.070232,100,0.111066074
mp-676561,Ag3SI,6.417371315,-3.08771653,2.58218914,0.065723314,0.333,16.91466221,Ag3SI,935.873,200,3625.69,1300,0.456484,100,0.07545664
mp-3881,BaZnF4,4.890456817,-5.197911964,-1.18693553,0,4.5489,25.15932208,BaZnF4,1262.81,1300,1294.16,100,0.170498,100,0.123087657
mp-559256,La4S3NCl3,4.690021412,-6.745368099,5.12743511,0,2.9165,18.00673726,La4S3NCl3,1193.16,1100,2512.86,100,0.408371,100,0.07720273
mp-22971,SbSBr,4.312449749,-4.089356466,2.46687697,0,1.7767,105.1537341,SbSBr,1179.17,700,1454.33,100,0.378153,300,0.039876725
mp-4182,CrAgS2,5.029493242,-5.917073263,4.18093084,0.003569692,0.7287,22.0179009,CrAgS2,1068.36,300,3562.58,1300,0.6219,100,0.075354079
mp-626534,H3NO,1.397382307,-5.208242629,0.32239351,0.36716581,3.8407,7.266612307,H3NO,1256.16,1300,778.074,100,0.150431,100,0.082993347
mp-541236,Na5HfAs3,3.836677296,-3.976150592,1.84918181,0,0.8394,16.05735011,Na5HfAs3,1049.35,400,2389.43,100,0.494541,100,0.021640263
mp-22450,Li2PbO3,6.684437017,-5.517568567,2.80536434,0,1.1199,30.81237459,Li2PbO3,1229.66,400,1787.92,100,0.390184,100,0.028182434
mp-14070,RbAlO2,3.59138436,-6.51667368,1.64583898,0,3.3716,24.01298233,RbAlO2,1262.97,1300,1523.67,100,0.232017,100,0.106518974
mp-6955,KGeNO,3.738078461,-6.033515938,1.1874323,0,2.6817,8.63736053,KGeNO,1215.45,1000,724.358,100,0.130728,100,0.066591473
mp-27694,H3ClO5,1.9087335,-4.906282159,-1.50454795,0,5.4926,4.975300467,H3ClO5,1318.4,1300,229.439,100,0.0272522,100,0.148809226
mp-37091,Sr(AlTe2)2,4.521575918,-4.183432127,3.56022874,0,1.4454,12.94836629,Sr(AlTe2)2,1093.66,700,4830.46,100,1.87214,100,0.018829374
mp-755013,Li5TaO5,4.429785748,-6.848967358,0.71831651,0,3.4293,22.80021312,Li5TaO5,1311.39,1300,1493.37,100,0.306439,100,0.08522302
mp-510076,Rb7Au5O2,5.732189043,-3.060429541,0.77686204,0,0.6268,10.88956884,Rb7Au5O2,1033.4,200,1477.46,1300,0.129557,100,0.132096187
mp-1634,MoSe2,5.692222801,-6.933359703,3.8297572,0.000184727,1.301,11.73284936,MoSe2,1109.52,600,2679.04,100,0.544149,100,0.032870034
mp-11321,Y3TaO7,6.158510119,-9.828894437,2.26579949,0,3.2385,23.82490081,Y3TaO7,1210.13,1300,1478.98,100,0.278841,100,0.078984072
mp-35208,NdOF,6.585385433,-7.979555413,1.41500962,0.054301107,5.2617,15.66090696,NdOF,1406.9,1300,626.832,100,0.110902,100,0.113764834
mp-8276,Sr(ZnP)2,4.453666408,-3.698107004,3.77766337,0,0.8279,19.66934646,Sr(ZnP)2,904.174,400,6108.03,100,1.29512,100,0.015682849
mp-18779,Na2CrO4,2.666880382,-6.572910433,-0.62033101,0,2.6713,10.25176572,Na2CrO4,1247.27,1000,730.698,100,0.138508,100,0.066764223
mp-555070,BaBe2(BO3)2,3.641640861,-7.88822882,1.27251551,0,5.3821,10.09168746,BaBe2(BO3)2,1228.17,1300,1065.72,100,0.184861,100,0.088426937
mp-3288,CsNO2,3.442763649,-6.053319933,0.32511465,0,2.3632,8.07261538,CsNO2,1206.99,800,459.465,100,0.0843213,100,0.053814712
mp-561305,BaZnSiO4,4.493110532,-6.998581681,1.09193041,0.010555356,3.5871,10.55625397,BaZnSiO4,1303.93,1200,619.64,100,0.0774866,600,0.175127171
mp-15703,BeCN2,3.291339714,-7.973001791,6.77906585,0.003604671,3.8513,7.1485121,BeCN2,1212.37,1300,3260.65,200,0.889414,100,0.058447926
mp-3795,NaZnF3,3.921646485,-4.43257325,-1.12786622,0,3.7676,11.08873467,NaZnF3,1259.22,1300,1506.53,100,0.358313,100,0.067793529
mp-17129,Sr3(AlN2)2,4.289649945,-6.264751255,3.81797455,0,2.1275,19.48698347,Sr3(AlN2)2,1172.19,700,777.892,100,0.118678,100,0.054949805
mp-561189,Rb6Si10O23,2.876474207,-7.465535612,0.60745097,0.012998631,4.0165,9.54903195,Rb6Si10O23,1318.29,1200,397.944,100,0.0458477,100,0.143163694
mp-568638,Y3CuSiSe7,5.390983812,-6.036944946,3.95541611,0,1.5105,18.23723916,Y3CuSiSe7,1062.34,600,3109.57,100,0.64373,100,0.029565973
mp-20727,Sb2PbO6,6.619821635,-6.529018068,4.21017737,0,1.9262,17.16319592,Sb2PbO6,1078.14,900,3651.6,100,0.706594,100,0.044795542
mp-705676,K4MoO8,2.440282735,-5.38537821,1.6952874,0.481195869,0.5693,14.10151573,K4MoO8,1107.77,200,266.586,1300,0.0177753,200,0.21210312
mp-550714,PbO,7.885728661,-5.778854845,3.2435658,0.020525675,2.3054,10.67355063,PbO,1110.06,900,1638.31,100,0.298727,100,0.050394801
mp-18778,Zr(WO4)2,4.747219103,-9.286978048,-1.37414196,0.073756011,3.6052,12.33412881,Zr(WO4)2,1237.28,800,529.902,100,0.0457097,800,0.204526992
mp-569578,NbI5,4.301490583,-3.70069675,1.92175551,0,0.9677,8.830064367,NbI5,73.4605,100,8793.07,1300,7654.16,100,6.30E-08
mp-640889,Tm(CuTe)3,7.384697721,-4.446774479,6.07332841,0,0.4005,17.37732689,Tm(CuTe)3,757.704,200,6039.71,100,1.28536,100,0.007315247
mp-20289,NaInS2,3.881389208,-4.198859095,3.55978029,0,1.8237,16.00155776,NaInS2,1216.89,700,3861.07,100,0.807952,100,0.043176338
mp-775027,Li2Mn3CoO8,4.245571756,-7.493503158,2.16842586,0.030470525,0.2625,13.91451086,Li2Mn3CoO8,1004.64,300,1336.31,100,0.256847,100,0.01779927
mp-1714,FeSi2,4.958877558,-6.835854183,9.10604776,0,0.6966,44.95269148,FeSi2,814.693,400,4914.26,100,1.92471,100,0.006893037
mp-570081,CuI,5.687300656,-3.153565885,4.00901963,0.001116818,1.6315,8.041694163,CuI,1197.93,700,1221.08,100,0.196282,100,0.054468771
mp-684816,K2NaNb(OF2)2,3.140554824,-6.099493708,-0.07705812,0.088821391,2.3005,29.52135107,K2NaNb(OF2)2,1215.24,800,637.01,100,0.0472835,800,0.229291631
mp-39770,Zr2P3H4NO12,2.910967936,-7.811901355,0.18806936,0,4.0671,13.20338564,Zr2P3H4NO12,1245.76,1300,1149.94,100,0.230696,100,0.078663574
mp-677467,Rb5Te3H4NCl18,2.814365615,-3.70325953,0.16462353,0,2.6114,14.82954644,Rb5Te3H4NCl18,1182.05,900,1089.55,100,0.121154,100,0.093702747
mp-30847,TiSnPt,9.925802909,-6.817648663,6.96184015,0,0.7908,26.45245058,TiSnPt,1075.81,300,2614.47,1300,0.399481,100,0.087294352
mp-1479,BP,2.952601818,-6.453834455,7.5307309,0,1.2435,9.272071147,BP,1005.38,600,8197.72,200,1.39574,100,0.036221805
mp-675989,Tl9BiSe6,8.555398443,-3.436849859,4.04783314,0,0.7463,141.5385033,Tl9BiSe6,932.02,300,4310.09,300,0.587416,100,0.030245976
mp-643727,HPbBrO,6.373903854,-4.793657646,1.93815957,0,3.1006,30.9126628,HPbBrO,1200.25,1200,1829.01,200,0.34972,100,0.076614123
mp-752463,NbNO,4.942325901,-9.71007219,2.06556323,0.061740882,0.9837,112.3347593,NbNO,938.155,500,5063.38,100,1.04337,100,0.020268796
mp-12015,KAg2AsO4,5.026473282,-5.256577473,1.45797878,0,0.2116,14.14728503,KAg2AsO4,781.108,100,4768.5,1300,0.421973,100,0.070111473
mp-765411,Li3CrSiO5,3.545315727,-7.169550239,3.7578164,0.078129367,3.1273,13.74473879,Li3CrSiO5,1215.49,1100,614.559,100,0.0921122,400,0.106917237
mp-11520,YNiSb,6.942946663,-6.42214189,6.58644604,0,0.2945,21.64774737,YNiSb,720.528,100,13145.4,1300,1.55523,100,0.044622172
mp-12829,LiCaGaF6,3.350955798,-5.509570639,-2.40919854,0,6.2575,6.96790884,LiCaGaF6,1398.2,1300,214.998,100,0.0256549,100,0.166599037
mp-35539,Zn2GeSe4,4.814304364,-3.797190096,1.28646831,0.009914361,1.3873,10.77757595,Zn2GeSe4,1137.81,600,3423.86,100,0.895633,100,0.026840706
mp-28400,P3Ru,5.201448386,-6.902495134,7.74114088,0,1.1446,23.09358708,P3Ru,1048.91,400,2005.01,100,0.425214,100,0.021101592
mp-17891,NaYSiO4,3.567378021,-8.070256109,1.51704885,0,4.2796,8.431887687,NaYSiO4,1263.49,1300,821.587,100,0.127807,100,0.104354776
mp-10621,RbSbS2,3.504782324,-4.311409662,1.97539408,0,1.9493,26.03301881,RbSbS2,1183.53,700,699.167,100,0.125863,100,0.047474722
mp-4044,ErAgSe2,7.224599801,-5.033074441,2.88274168,0,1.2801,18.90871168,ErAgSe2,905.581,600,4559.13,200,0.864747,100,0.026379622
mp-18789,TlCo(CO)4,3.287635743,-7.390297808,-0.17907075,0.371980353,2.9854,12.25466696,TlCo(CO)4,1225.56,1000,454.25,100,0.0524881,100,0.105745775
mp-23562,KIO4,3.449424231,-4.907823063,-0.42471356,0,2.3492,6.339515281,KIO4,1327.75,800,230.233,100,0.033506,100,0.082121362
mp-567503,PbI2,5.134591412,-3.174443515,1.02768837,0.000194094,2.4455,15.9091807,PbI2,1221.92,900,1130.42,400,0.169587,100,0.094458141
mp-28719,Ba(AuF4)2,5.801833016,-4.371535525,-2.19737877,0,2.4882,6.430311597,Ba(AuF4)2,1283.54,800,270.536,100,0.0133318,700,0.362621549
mp-18837,KSc(MoO4)2,3.020058479,-8.241884931,-1.28158445,0,3.4136,9.548276217,KSc(MoO4)2,1288.34,1300,895.581,100,0.151602,100,0.099708164
mp-14501,Ba(As3Pt2)2,9.949197858,-5.587025596,5.33771477,0,0.1901,30.99011086,Ba(As3Pt2)2,701.553,100,9613.86,1300,1.42557,100,0.033752039
mp-10341,SrGeTeO6,5.052851231,-6.62281138,1.70480685,0,2.9532,10.01295502,SrGeTeO6,1324.41,1000,447.809,100,0.0615,100,0.103901636
mp-23474,AgBi3S5,6.449788674,-4.493420732,4.42257898,0,0.5262,211.1263443,AgBi3S5,859.046,300,2852.14,100,0.526381,100,0.013553517
mp-752753,SbO2F,5.43488798,-5.961926158,2.93194669,0.018391367,1.4384,12.32532414,SbO2F,1257.6,500,507.974,100,0.0865292,100,0.044059588
mp-6599,KNb(CuSe2)2,4.449125641,-5.141705398,1.93821768,0,1.4228,20.03491705,KNb(CuSe2)2,1092.98,600,2601.45,100,0.500601,100,0.033667954
mp-555014,Rb2MnF5,3.300940005,-5.558675035,-0.98549271,0,0.9596,10.38769574,Rb2MnF5,1017.45,500,1638.86,100,0.329174,100,0.024457894
mp-8176,RbTlO2,7.592668816,-4.633846817,2.73293453,0,0.8462,15.38887916,RbTlO2,1207.62,400,1720.64,100,0.397856,100,0.025653964
mp-27362,Nb(SCl)2,3.040444404,-5.872545882,2.2955644,0,1.5102,5.730935273,Nb(SCl)2,1140.79,500,736.608,100,0.126561,100,0.035943844
mp-672,CdS,4.575652564,-3.413506895,0.90711455,0,1.125,9.982347543,CdS,1067.21,500,2097.79,100,0.411442,100,0.02755686
mp-17123,Si2Os,9.484515397,-7.761636227,9.39199799,0,0.6497,33.08928278,Si2Os,855.564,300,5486.19,200,1.26019,100,0.012961928
mp-8946,TlBS2,5.171493693,-5.044393666,3.36859046,0,1.759,19.39570876,TlBS2,1175.84,700,1470.36,100,0.223628,100,0.055464488
mp-676002,Ba2PrF7,4.961596985,-6.418441114,-1.36024062,0.044637905,6.2167,19.73045012,Ba2PrF7,1317.12,1300,210.308,100,0.0155583,600,0.31794564
mp-556699,Na2PHO3,2.353421955,-5.918124222,0.34777751,0,5.5817,5.843391263,Na2PHO3,1280.5,1300,289.797,100,0.0325137,900,0.227873084
mp-31306,C2O3F2,1.798560162,-7.055898061,-3.12218265,0.164686057,5.2637,2.461572583,C2O3F2,1359.63,1300,143.684,100,0.00613119,1300,0.79295294
mp-556296,BaS3,3.483683098,-4.99106,3.09236233,0.026024411,1.0473,13.69730896,BaS3,1101.8,400,1682.65,100,0.262707,100,0.031626961
mp-37995,Ti3Zn2O8,4.450025178,-7.951753704,2.19141949,0.088172019,1.8044,35.76277497,Ti3Zn2O8,1210.82,700,1398.87,100,0.251288,100,0.04979501
mp-10368,CoPSe,6.274965979,-5.960383141,6.7950874,0,0.6371,30.14184262,CoPSe,917.941,300,5148.99,100,1.11708,100,0.013164848
mp-567601,Sr4CN4,4.024837406,-6.326724353,2.74135067,0,1.1703,18.09362075,Sr4CN4,1184.87,500,626.443,100,0.103385,100,0.040368444
mp-559798,NiF2,4.655344723,-5.520380903,0.401624,0,4.9116,5.20394308,NiF2,875.748,100,8178.16,1300,0.123266,100,0.517416655
mp-14638,Rb2LiGaF6,4.023988983,-4.928075961,-2.47770022,0,6.066,8.367348097,Rb2LiGaF6,1354.68,1300,348.791,100,0.0774302,100,0.084061691
mp-697921,Mg5H8O9,2.39963053,-5.72583038,1.45197236,0.000156562,3.5747,7.339976259,Mg5H8O9,1322.39,900,832.193,500,0.122522,100,0.120781075
mp-690544,Ga2FeO4,5.684689332,-6.966845545,3.53324469,0,0.5741,11.99306183,Ga2FeO4,1199.43,200,2064.96,1300,0.0391939,100,0.822131895
mp-31468,LiCaN,2.335579398,-4.852313583,2.12837861,0,1.3785,13.47550181,LiCaN,1205.57,600,1175.23,100,0.226651,100,0.040871316
mp-675101,Ca5NbN5,3.286651751,-6.82174194,3.20094127,0,0.5196,17.41591218,Ca5NbN5,1061.03,300,1173.25,100,0.264158,100,0.016948476
mp-22512,Sr2In2O5,5.533175451,-6.224004147,3.52945438,0.029024471,0.9973,14.6555115,Sr2In2O5,976.461,300,3367.62,100,0.503723,100,0.02160676
mp-556372,CaSO4,2.47757509,-6.988515551,0.15006781,0.002893785,5.674,6.804214803,CaSO4,1263.1,1300,680.123,100,0.12832,100,0.085988105
mp-8207,Zn(PtO2)3,10.60862176,-6.022769541,4.94714268,0,0.3047,18.59989981,Zn(PtO2)3,962.871,100,16344.4,1300,0.610943,100,0.252216967
mp-9562,LiBeAs,3.457550891,-3.92111995,3.58660746,0,1.6573,16.12053904,LiBeAs,999.438,500,9141.04,200,1.26683,100,0.039089265
mp-607953,FeSeBr7,3.446539748,-3.333857194,-0.40226838,0,0.0864,10.86193017,FeSeBr7,1088.19,400,979.639,100,0.142241,100,0.033172677
mp-559270,RbBa4Sb3O,4.892431149,-4.324367696,2.87693709,0,0.9417,16.93978331,RbBa4Sb3O,995.961,400,2575.41,100,0.618145,100,0.016810107
mp-34116,Tm2MgS4,5.871984239,-5.95308874,4.36074785,0.100445911,2.3768,24.7625931,Tm2MgS4,1164.57,1000,2337.44,100,0.432701,100,0.059599628
mp-625112,H8PtO6,4.347820094,-5.334535194,1.07559369,0.069469822,1.5662,40.57869996,H8PtO6,1183.78,500,554.883,100,0.0860585,100,0.042877181
mp-555359,KMnF3,3.259562483,-6.222539082,0.63139417,0.000179502,2.7802,9.96218547,KMnF3,1155.32,1200,2362.77,100,0.392796,100,0.076201856
mp-23486,RbNiCl3,3.246404951,-4.01275916,1.42430059,0,0.7089,10.27909403,RbNiCl3,1064.72,300,924.285,200,0.156229,100,0.027280031